file 37832 1346233642                                           
version 2
run General-0-20120824-19:49:49-5263
attr configname General
attr datetime 20120824-19:49:49
attr experiment General
attr inifile omnetpp.ini
attr iterationvars ""
attr iterationvars2 $repetition=0
attr measurement ""
attr network multi
attr processid 5263
attr repetition 0
attr replication #0
attr resultdir results
attr runnumber 0
attr seedset 0
vector 55  multi.srv1.sctp  "Slow Start Threshold 3:10.1.1.1"  ETV
55	12999 45 69 4853 1.03276552 2.360060048 2 0 65535 65535 4294836225
vector 56  multi.srv1.sctp  "Congestion Window 3:10.1.1.1"  ETV
56	13044 44 69 4853 1.03276552 2.360060048 2 0 4380 4380 19184400
vector 59  multi.srv1.sctp  "HB Sent 3:10.1.1.1"  ETV
59	15586 19 69 69 1.03276552 1.03276552 1 1 1 1 1
vector 53  multi.srv1.sctp  "RTO 3:10.1.1.1"  ETV
53	13088 61 69 4853 1.03276552 2.360060048 3 0 3 4 10
vector 65  multi.srv1.sctp  "Slow Start Threshold 3:10.2.1.1"  ETV
65	15665 45 69 4853 1.03276552 2.360060048 2 0 65535 65535 4294836225
vector 66  multi.srv1.sctp  "Congestion Window 3:10.2.1.1"  ETV
66	15710 44 69 4853 1.03276552 2.360060048 2 0 4380 4380 19184400
vector 69  multi.srv1.sctp  "HB Sent 3:10.2.1.1"  ETV
69	15866 19 69 69 1.03276552 1.03276552 1 1 1 1 1
vector 63  multi.srv1.sctp  "RTO 3:10.2.1.1"  ETV
63	15754 61 69 4853 1.03276552 2.360060048 3 0 3 4 10
vector 10  multi.srv1.ppp[0].queue  "avg queue length"  ETV
10	28701 19 82 82 1.03276552 1.03276552 1 0 0 0 0
vector 11  multi.srv1.ppp[0].queue  "queue length"  ETV
11	28720 38 82 86 1.03276552 1.03276596 2 0 1 1 1
vector 22  multi.router2.ppp[0].queue  "avg queue length"  ETV
22	37708 21 102 102 1.032766304 1.032766304 1 0 0 0 0
vector 23  multi.router2.ppp[0].queue  "queue length"  ETV
23	37729 41 102 103 1.032766304 1.03320596 2 0 1 1 1
vector 49  multi.cli1.sctp  "HB ACK Sent 1:10.1.3.1"  ETV
49	8488 19 125 125 1.0432064 1.0432064 1 1 1 1 1
vector 50  multi.cli1.sctp  "HB Received 1:10.1.3.1"  ETV
50	8469 19 125 125 1.0432064 1.0432064 1 1 1 1 1
vector 80  multi.cli1.sctp  "HB ACK Sent 1:10.2.3.1"  ETV
80	8771 19 126 126 1.0432064 1.0432064 1 1 1 1 1
vector 81  multi.cli1.sctp  "HB Received 1:10.2.3.1"  ETV
81	8752 19 126 126 1.0432064 1.0432064 1 1 1 1 1
vector 44  multi.cli1.sctp  "Slow Start Threshold 1:10.1.3.1"  ETV
44	3242 804 158 4829 1.043550304 2.34971536 32 0 65535 1889705 121325035525
vector 45  multi.cli1.sctp  "Congestion Window 1:10.1.3.1"  ETV
45	4046 799 158 4829 1.043550304 2.34971536 32 0 43380 730365 21401684425
vector 48  multi.cli1.sctp  "HB Sent 1:10.1.3.1"  ETV
48	8448 21 158 158 1.043550304 1.043550304 1 1 1 1 1
vector 42  multi.cli1.sctp  "RTO 1:10.1.3.1"  ETV
42	4845 314 158 4829 1.043550304 2.34971536 15 0 3 16 22
vector 75  multi.cli1.sctp  "Slow Start Threshold 1:10.2.3.1"  ETV
75	8527 46 158 4829 1.043550304 2.34971536 2 0 65535 65535 4294836225
vector 76  multi.cli1.sctp  "Congestion Window 1:10.2.3.1"  ETV
76	8573 45 158 4829 1.043550304 2.34971536 2 0 4380 4380 19184400
vector 79  multi.cli1.sctp  "HB Sent 1:10.2.3.1"  ETV
79	8731 21 158 158 1.043550304 1.043550304 1 1 1 1 1
vector 73  multi.cli1.sctp  "RTO 1:10.2.3.1"  ETV
73	8618 62 158 4829 1.043550304 2.34971536 3 0 3 4 10
vector 90  multi.cli1.sctp  "SendQueue of Association 1"  ETV
90	8810 4189 164 4734 1.043550304 2.10009616 200 0 6 540 2060
vector 46  multi.cli1.sctp  "TSN Sent 1:10.1.3.1"  ETV
46	5552 2896 164 4734 1.043550304 2.10009616 120 1000 1099 126365 133162055
vector 2  multi.cli1.ppp[0].queue  "avg queue length"  ETV
2	23402 2491 286 4473 1.043550304 1.841080287998 71 0 0.10404484621544 4.2882908390348 0.31745667935927
vector 3  multi.cli1.ppp[0].queue  "queue length"  ETV
3	25893 2808 286 4476 1.043550304 1.841088727998 142 0 5 187 391
vector 19  multi.router1.ppp[1].queue  "avg queue length"  ETV
19	28758 4207 300 4532 1.043550744 1.849528727998 120 0 3.0052163169132 160.39467228266 340.17243706327
vector 20  multi.router1.ppp[1].queue  "queue length"  ETV
20	32965 4320 300 4607 1.043550744 1.87120684 200 0 20 2612 41512
vector 31  multi.router3.ppp[1].queue  "avg queue length"  ETV
31	37770 21 301 301 1.043550744 1.043550744 1 0 0 0 0
vector 32  multi.router3.ppp[1].queue  "queue length"  ETV
32	37791 41 301 332 1.043550744 1.04364684 2 0 1 1 1
vector 62  multi.srv1.sctp  "HB ACK Received 3:10.1.1.1"  ETV
62	15645 20 358 358 1.05364728 1.05364728 1 1 1 1 1
vector 54  multi.srv1.sctp  "RTT 3:10.1.1.1"  ETV
54	13149 51 358 4853 1.05364728 2.360060048 2 0 0.02088176 0.02088176 0.0004360479006976
vector 72  multi.srv1.sctp  "HB ACK Received 3:10.2.1.1"  ETV
72	15925 20 359 359 1.05364728 1.05364728 1 1 1 1 1
vector 64  multi.srv1.sctp  "RTT 3:10.2.1.1"  ETV
64	15815 51 359 4853 1.05364728 2.360060048 2 0 0.02088176 0.02088176 0.0004360479006976
vector 60  multi.srv1.sctp  "HB ACK Sent 3:10.1.1.1"  ETV
60	15625 20 378 378 1.05408728 1.05408728 1 1 1 1 1
vector 61  multi.srv1.sctp  "HB Received 3:10.1.1.1"  ETV
61	15605 20 378 378 1.05408728 1.05408728 1 1 1 1 1
vector 70  multi.srv1.sctp  "HB ACK Sent 3:10.2.1.1"  ETV
70	15905 20 379 379 1.05408728 1.05408728 1 1 1 1 1
vector 71  multi.srv1.sctp  "HB Received 3:10.2.1.1"  ETV
71	15885 20 379 379 1.05408728 1.05408728 1 1 1 1 1
vector 58  multi.srv1.sctp  "TSN Received 3:10.1.1.1"  ETV
58	13200 2386 415 4756 1.06253528 2.11855304 100 1000 1099 104950 110228350
vector 40  multi.srv1.sctp  "Advertised Receiver Window 2"  ETV
40	15945 1893 415 4761 1.06253528 2.31855304 76 47535 65535 4519660 270951283100
vector 86  multi.srv1.sctpApp[0]  "App: Received Bytes of assoc 3"  ETV
86	17838 2478 420 4759 1.06253528 2.11855304 100 1000 100000 5050000 338350000000
vector 87  multi.srv1.sctpApp[0]  "App: EndToEndDelay of assoc 3"  ETV
87	20316 3086 420 4759 1.06253528 2.11855304 100 0.018984976 1.075002736 47.18011536 29.527737552837
vector 51  multi.cli1.sctp  "HB ACK Received 1:10.1.3.1"  ETV
51	8507 20 449 449 1.06452816 1.06452816 1 1 1 1 1
vector 43  multi.cli1.sctp  "RTT 1:10.1.3.1"  ETV
43	5159 393 449 4829 1.06452816 2.34971536 14 0 0.22889776 1.5369256 0.23574591795084
vector 82  multi.cli1.sctp  "HB ACK Received 1:10.2.3.1"  ETV
82	8790 20 450 450 1.06452816 1.06452816 1 1 1 1 1
vector 74  multi.cli1.sctp  "RTT 1:10.2.3.1"  ETV
74	8680 51 450 4829 1.06452816 2.34971536 2 0 0.020977856 0.020977856 0.00044007044235674
vector 21  multi.router1.ppp[1].queue  drops  ETV
21	37285 423 1539 2650 1.27556992 1.486585104 20 1 1 20 20
