version 2
run General-0-20120824-19:49:49-5263
attr configname General
attr datetime 20120824-19:49:49
attr experiment General
attr inifile omnetpp.ini
attr iterationvars ""
attr iterationvars2 $repetition=0
attr measurement ""
attr network multi
attr processid 5263
attr repetition 0
attr replication #0
attr resultdir results
attr runnumber 0
attr seedset 0

vector 55  multi.srv1.sctp  "Slow Start Threshold 3:10.1.1.1"  ETV
vector 56  multi.srv1.sctp  "Congestion Window 3:10.1.1.1"  ETV
vector 59  multi.srv1.sctp  "HB Sent 3:10.1.1.1"  ETV
vector 53  multi.srv1.sctp  "RTO 3:10.1.1.1"  ETV
vector 65  multi.srv1.sctp  "Slow Start Threshold 3:10.2.1.1"  ETV
vector 66  multi.srv1.sctp  "Congestion Window 3:10.2.1.1"  ETV
vector 69  multi.srv1.sctp  "HB Sent 3:10.2.1.1"  ETV
vector 63  multi.srv1.sctp  "RTO 3:10.2.1.1"  ETV
vector 10  multi.srv1.ppp[0].queue  "avg queue length"  ETV
vector 11  multi.srv1.ppp[0].queue  "queue length"  ETV
vector 22  multi.router2.ppp[0].queue  "avg queue length"  ETV
vector 23  multi.router2.ppp[0].queue  "queue length"  ETV
vector 49  multi.cli1.sctp  "HB ACK Sent 1:10.1.3.1"  ETV
vector 50  multi.cli1.sctp  "HB Received 1:10.1.3.1"  ETV
vector 80  multi.cli1.sctp  "HB ACK Sent 1:10.2.3.1"  ETV
vector 81  multi.cli1.sctp  "HB Received 1:10.2.3.1"  ETV
vector 44  multi.cli1.sctp  "Slow Start Threshold 1:10.1.3.1"  ETV
vector 45  multi.cli1.sctp  "Congestion Window 1:10.1.3.1"  ETV
vector 48  multi.cli1.sctp  "HB Sent 1:10.1.3.1"  ETV
vector 42  multi.cli1.sctp  "RTO 1:10.1.3.1"  ETV
vector 75  multi.cli1.sctp  "Slow Start Threshold 1:10.2.3.1"  ETV
vector 76  multi.cli1.sctp  "Congestion Window 1:10.2.3.1"  ETV
vector 79  multi.cli1.sctp  "HB Sent 1:10.2.3.1"  ETV
vector 73  multi.cli1.sctp  "RTO 1:10.2.3.1"  ETV
vector 90  multi.cli1.sctp  "SendQueue of Association 1"  ETV
vector 46  multi.cli1.sctp  "TSN Sent 1:10.1.3.1"  ETV
vector 2  multi.cli1.ppp[0].queue  "avg queue length"  ETV
vector 3  multi.cli1.ppp[0].queue  "queue length"  ETV
vector 19  multi.router1.ppp[1].queue  "avg queue length"  ETV
vector 20  multi.router1.ppp[1].queue  "queue length"  ETV
vector 31  multi.router3.ppp[1].queue  "avg queue length"  ETV
vector 32  multi.router3.ppp[1].queue  "queue length"  ETV
vector 62  multi.srv1.sctp  "HB ACK Received 3:10.1.1.1"  ETV
vector 54  multi.srv1.sctp  "RTT 3:10.1.1.1"  ETV
vector 72  multi.srv1.sctp  "HB ACK Received 3:10.2.1.1"  ETV
vector 64  multi.srv1.sctp  "RTT 3:10.2.1.1"  ETV
vector 60  multi.srv1.sctp  "HB ACK Sent 3:10.1.1.1"  ETV
vector 61  multi.srv1.sctp  "HB Received 3:10.1.1.1"  ETV
vector 70  multi.srv1.sctp  "HB ACK Sent 3:10.2.1.1"  ETV
vector 71  multi.srv1.sctp  "HB Received 3:10.2.1.1"  ETV
vector 58  multi.srv1.sctp  "TSN Received 3:10.1.1.1"  ETV
vector 40  multi.srv1.sctp  "Advertised Receiver Window 2"  ETV
vector 86  multi.srv1.sctpApp[0]  "App: Received Bytes of assoc 3"  ETV
vector 87  multi.srv1.sctpApp[0]  "App: EndToEndDelay of assoc 3"  ETV
vector 51  multi.cli1.sctp  "HB ACK Received 1:10.1.3.1"  ETV
vector 43  multi.cli1.sctp  "RTT 1:10.1.3.1"  ETV
vector 82  multi.cli1.sctp  "HB ACK Received 1:10.2.3.1"  ETV
vector 74  multi.cli1.sctp  "RTT 1:10.2.3.1"  ETV
vector 21  multi.router1.ppp[1].queue  drops  ETV
44	158	1.043550304	65535
44	475	1.07297616	65535
44	547	1.08985616	65535
44	629	1.10673616	65535
44	721	1.12361616	65535
44	803	1.14049616	65535
44	895	1.15737616	65535
44	977	1.17425616	65535
44	1069	1.19113616	65535
44	1151	1.20801616	65535
44	1243	1.22489616	65535
44	1325	1.24177616	65535
44	1417	1.25865616	65535
44	1499	1.27553616	65535
44	1591	1.29241616	65535
44	1673	1.30929616	65535
44	1765	1.32617616	65535
44	1847	1.34305616	65535
44	1939	1.35993616	65535
44	2021	1.37681616	65535
44	2113	1.39369616	65535
44	2195	1.41057616	65535
44	2287	1.42745616	65535
44	2369	1.44433616	65535
44	2461	1.46121616	65535
44	2553	1.478128224	65535
44	2630	1.486568224	65535
44	2687	1.495040287998	65535
44	2687	1.495040287998	21690
44	3766	1.697888864	21690
44	4465	1.841080287998	11345
44	4829	2.34971536	0
45	158	1.043550304	4380
45	475	1.07297616	5380
45	547	1.08985616	6880
45	629	1.10673616	8380
45	721	1.12361616	9880
45	803	1.14049616	11380
45	895	1.15737616	12880
45	977	1.17425616	14380
45	1069	1.19113616	15880
45	1151	1.20801616	17380
45	1243	1.22489616	18880
45	1325	1.24177616	20380
45	1417	1.25865616	21880
45	1499	1.27553616	23380
45	1591	1.29241616	24880
45	1673	1.30929616	26380
45	1765	1.32617616	27880
45	1847	1.34305616	29380
45	1939	1.35993616	30880
45	2021	1.37681616	32380
45	2113	1.39369616	33880
45	2195	1.41057616	35380
45	2287	1.42745616	36880
45	2369	1.44433616	38380
45	2461	1.46121616	39880
45	2553	1.478128224	41380
45	2630	1.486568224	42380
45	2687	1.495040287998	43380
45	2687	1.495040287998	21690
45	3766	1.697888864	22690
45	4465	1.841080287998	11345
45	4829	2.34971536	0
42	158	1.043550304	3
42	449	1.06452816	1
42	547	1.08985616	1
42	721	1.12361616	1
42	895	1.15737616	1
42	1069	1.19113616	1
42	1325	1.24177616	1
42	1591	1.29241616	1
42	1939	1.35993616	1
42	2287	1.42745616	1
42	2769	1.511952352	1
42	3248	1.604952672	1
42	4392	1.824232352	1
42	4783	2.32899392	1
42	4829	2.34971536	0
43	449	1.06452816	0.020977856
43	547	1.08985616	0.046305856
43	721	1.12361616	0.05064
43	895	1.15737616	0.05064
43	1069	1.19113616	0.06752
43	1325	1.24177616	0.10128
43	1591	1.29241616	0.11816
43	1939	1.35993616	0.15192
43	2287	1.42745616	0.1688
43	2769	1.511952352	0.185776192
43	3248	1.604952672	0.194376512
43	4392	1.824232352	0.151631424
43	4783	2.32899392	0.22889776
43	4829	2.34971536	0
46	164	1.043550304	1000
46	166	1.043550304	1001
46	167	1.043550304	1002
46	168	1.043550304	1003
46	169	1.043550304	1004
46	475	1.07297616	1005
46	475	1.07297616	1006
46	547	1.08985616	1007
46	547	1.08985616	1008
46	547	1.08985616	1009
46	629	1.10673616	1010
46	629	1.10673616	1011
46	629	1.10673616	1012
46	629	1.10673616	1013
46	721	1.12361616	1014
46	721	1.12361616	1015
46	721	1.12361616	1016
46	803	1.14049616	1017
46	803	1.14049616	1018
46	803	1.14049616	1019
46	803	1.14049616	1020
46	895	1.15737616	1021
46	895	1.15737616	1022
46	895	1.15737616	1023
46	977	1.17425616	1024
46	977	1.17425616	1025
46	977	1.17425616	1026
46	977	1.17425616	1027
46	1069	1.19113616	1028
46	1069	1.19113616	1029
46	1069	1.19113616	1030
46	1151	1.20801616	1031
46	1151	1.20801616	1032
46	1151	1.20801616	1033
46	1151	1.20801616	1034
46	1243	1.22489616	1035
46	1243	1.22489616	1036
46	1243	1.22489616	1037
46	1325	1.24177616	1038
46	1325	1.24177616	1039
46	1325	1.24177616	1040
46	1325	1.24177616	1041
46	1417	1.25865616	1042
46	1417	1.25865616	1043
46	1417	1.25865616	1044
46	1499	1.27553616	1045
46	1499	1.27553616	1046
46	1499	1.27553616	1047
46	1499	1.27553616	1048
46	1591	1.29241616	1049
46	1591	1.29241616	1050
46	1591	1.29241616	1051
46	1673	1.30929616	1052
46	1673	1.30929616	1053
46	1673	1.30929616	1054
46	1673	1.30929616	1055
46	1765	1.32617616	1056
46	1765	1.32617616	1057
46	1765	1.32617616	1058
46	1847	1.34305616	1059
46	1847	1.34305616	1060
46	1847	1.34305616	1061
46	1847	1.34305616	1062
46	1939	1.35993616	1063
46	1939	1.35993616	1064
46	1939	1.35993616	1065
46	2021	1.37681616	1066
46	2021	1.37681616	1067
46	2021	1.37681616	1068
46	2021	1.37681616	1069
46	2113	1.39369616	1070
46	2113	1.39369616	1071
46	2113	1.39369616	1072
46	2195	1.41057616	1073
46	2195	1.41057616	1074
46	2195	1.41057616	1075
46	2195	1.41057616	1076
46	2287	1.42745616	1077
46	2287	1.42745616	1078
46	2287	1.42745616	1079
46	2369	1.44433616	1080
46	2369	1.44433616	1081
46	2369	1.44433616	1082
46	2369	1.44433616	1083
46	2461	1.46121616	1084
46	2461	1.46121616	1085
46	2461	1.46121616	1086
46	2553	1.478128224	1087
46	2553	1.478128224	1088
46	2553	1.478128224	1089
46	2553	1.478128224	1090
46	2630	1.486568224	1091
46	2630	1.486568224	1092
46	2687	1.495040287998	1048
46	2769	1.511952352	1051
46	2851	1.528864416	1054
46	2897	1.537304416	1055
46	2944	1.54577648	1058
46	3026	1.562688544	1061
46	3073	1.571128544	1062
46	3120	1.579600608	1065
46	3202	1.596512672	1068
46	3248	1.604952672	1069
46	3294	1.613424736	1072
46	3378	1.6303368	1075
46	3424	1.6387768	1076
46	3471	1.647248864	1079
46	3553	1.664160928	1082
46	3553	1.664160928	1083
46	3609	1.672600928	1093
46	3662	1.681072992	1086
46	3662	1.681072992	1094
46	3719	1.689480928	1095
46	3766	1.697888864	1096
46	3766	1.697888864	1097
46	3829	1.706328864	1098
46	4465	1.841080287998	1089
46	4465	1.841080287998	1090
46	4522	1.849520287998	1092
46	4734	2.10009616	1099
48	158	1.043550304	1
50	125	1.0432064	1
49	125	1.0432064	1
51	449	1.06452816	1
75	158	1.043550304	65535
75	4829	2.34971536	0
76	158	1.043550304	4380
76	4829	2.34971536	0
73	158	1.043550304	3
73	450	1.06452816	1
73	4829	2.34971536	0
74	450	1.06452816	0.020977856
74	4829	2.34971536	0
79	158	1.043550304	1
81	126	1.0432064	1
80	126	1.0432064	1
82	450	1.06452816	1
90	164	1.043550304	1
90	164	1.043550304	0
90	165	1.043550304	1
90	166	1.043550304	1
90	166	1.043550304	0
90	167	1.043550304	1
90	167	1.043550304	0
90	168	1.043550304	1
90	168	1.043550304	0
90	169	1.043550304	1
90	169	1.043550304	0
90	170	1.043550304	1
90	171	1.043550304	1
90	172	1.043550304	1
90	173	1.043550304	1
90	174	1.043550304	1
90	175	1.043550304	1
90	176	1.043550304	1
90	177	1.043550304	1
90	178	1.043550304	1
90	179	1.043550304	1
90	180	1.043550304	1
90	181	1.043550304	1
90	182	1.043550304	1
90	183	1.043550304	1
90	184	1.043550304	1
90	185	1.043550304	1
90	186	1.043550304	2
90	187	1.043550304	2
90	188	1.043550304	2
90	189	1.043550304	2
90	190	1.043550304	2
90	191	1.043550304	2
90	192	1.043550304	2
90	193	1.043550304	2
90	194	1.043550304	2
90	195	1.043550304	2
90	196	1.043550304	2
90	197	1.043550304	2
90	198	1.043550304	2
90	199	1.043550304	2
90	200	1.043550304	2
90	201	1.043550304	2
90	202	1.043550304	2
90	203	1.043550304	3
90	204	1.043550304	3
90	205	1.043550304	3
90	206	1.043550304	3
90	207	1.043550304	3
90	208	1.043550304	3
90	209	1.043550304	3
90	210	1.043550304	3
90	211	1.043550304	3
90	212	1.043550304	3
90	213	1.043550304	3
90	214	1.043550304	3
90	215	1.043550304	3
90	216	1.043550304	3
90	217	1.043550304	3
90	218	1.043550304	3
90	219	1.043550304	3
90	220	1.043550304	4
90	221	1.043550304	4
90	222	1.043550304	4
90	223	1.043550304	4
90	224	1.043550304	4
90	225	1.043550304	4
90	226	1.043550304	4
90	227	1.043550304	4
90	228	1.043550304	4
90	229	1.043550304	4
90	230	1.043550304	4
90	231	1.043550304	4
90	232	1.043550304	4
90	233	1.043550304	4
90	234	1.043550304	4
90	235	1.043550304	4
90	236	1.043550304	4
90	237	1.043550304	5
90	238	1.043550304	5
90	239	1.043550304	5
90	240	1.043550304	5
90	241	1.043550304	5
90	242	1.043550304	5
90	243	1.043550304	5
90	244	1.043550304	5
90	245	1.043550304	5
90	246	1.043550304	5
90	247	1.043550304	5
90	248	1.043550304	5
90	249	1.043550304	5
90	250	1.043550304	5
90	251	1.043550304	5
90	252	1.043550304	5
90	253	1.043550304	5
90	254	1.043550304	6
90	255	1.043550304	6
90	256	1.043550304	6
90	257	1.043550304	6
90	258	1.043550304	6
90	259	1.043550304	6
90	260	1.043550304	6
90	261	1.043550304	6
90	262	1.043550304	6
90	263	1.043550304	6
90	475	1.07297616	4
90	475	1.07297616	3
90	547	1.08985616	2
90	547	1.08985616	1
90	547	1.08985616	0
90	629	1.10673616	5
90	629	1.10673616	4
90	629	1.10673616	3
90	629	1.10673616	2
90	721	1.12361616	1
90	721	1.12361616	0
90	721	1.12361616	5
90	803	1.14049616	4
90	803	1.14049616	3
90	803	1.14049616	2
90	803	1.14049616	1
90	895	1.15737616	0
90	895	1.15737616	5
90	895	1.15737616	4
90	977	1.17425616	3
90	977	1.17425616	2
90	977	1.17425616	1
90	977	1.17425616	0
90	1069	1.19113616	5
90	1069	1.19113616	4
90	1069	1.19113616	3
90	1151	1.20801616	2
90	1151	1.20801616	1
90	1151	1.20801616	0
90	1151	1.20801616	5
90	1243	1.22489616	4
90	1243	1.22489616	3
90	1243	1.22489616	2
90	1325	1.24177616	1
90	1325	1.24177616	0
90	1325	1.24177616	5
90	1325	1.24177616	4
90	1417	1.25865616	3
90	1417	1.25865616	2
90	1417	1.25865616	1
90	1499	1.27553616	0
90	1499	1.27553616	5
90	1499	1.27553616	4
90	1499	1.27553616	3
90	1591	1.29241616	2
90	1591	1.29241616	1
90	1591	1.29241616	0
90	1673	1.30929616	5
90	1673	1.30929616	4
90	1673	1.30929616	3
90	1673	1.30929616	2
90	1765	1.32617616	1
90	1765	1.32617616	0
90	1765	1.32617616	5
90	1847	1.34305616	4
90	1847	1.34305616	3
90	1847	1.34305616	2
90	1847	1.34305616	1
90	1939	1.35993616	0
90	1939	1.35993616	5
90	1939	1.35993616	4
90	2021	1.37681616	3
90	2021	1.37681616	2
90	2021	1.37681616	1
90	2021	1.37681616	0
90	2113	1.39369616	4
90	2113	1.39369616	3
90	2113	1.39369616	2
90	2195	1.41057616	1
90	2195	1.41057616	0
90	2195	1.41057616	4
90	2195	1.41057616	3
90	2287	1.42745616	2
90	2287	1.42745616	1
90	2287	1.42745616	0
90	2369	1.44433616	4
90	2369	1.44433616	3
90	2369	1.44433616	2
90	2369	1.44433616	1
90	2461	1.46121616	0
90	2461	1.46121616	4
90	2461	1.46121616	3
90	2553	1.478128224	2
90	2553	1.478128224	1
90	2553	1.478128224	0
90	2553	1.478128224	4
90	2630	1.486568224	3
90	2630	1.486568224	2
90	3609	1.672600928	1
90	3662	1.681072992	0
90	3719	1.689480928	4
90	3766	1.697888864	3
90	3766	1.697888864	2
90	3829	1.706328864	1
90	4734	2.10009616	0
55	69	1.03276552	65535
55	4853	2.360060048	0
56	69	1.03276552	4380
56	4853	2.360060048	0
53	69	1.03276552	3
53	358	1.05364728	1
53	4853	2.360060048	0
54	358	1.05364728	0.02088176
54	4853	2.360060048	0
58	415	1.06253528	1000
58	462	1.07097528	1001
58	507	1.07941528	1002
58	534	1.08785528	1003
58	589	1.09629528	1004
58	616	1.10473528	1005
58	681	1.11317528	1006
58	708	1.12161528	1007
58	763	1.13005528	1008
58	790	1.13849528	1009
58	855	1.14693528	1010
58	882	1.15537528	1011
58	937	1.16381528	1012
58	964	1.17225528	1013
58	1029	1.18069528	1014
58	1056	1.18913528	1015
58	1111	1.19757528	1016
58	1138	1.20601528	1017
58	1203	1.21445528	1018
58	1230	1.22289528	1019
58	1285	1.23133528	1020
58	1312	1.23977528	1021
58	1377	1.24821528	1022
58	1404	1.25665528	1023
58	1459	1.26509528	1024
58	1486	1.27353528	1025
58	1551	1.28197528	1026
58	1578	1.29041528	1027
58	1633	1.29885528	1028
58	1660	1.30729528	1029
58	1725	1.31573528	1030
58	1752	1.32417528	1031
58	1807	1.33261528	1032
58	1834	1.34105528	1033
58	1899	1.34949528	1034
58	1926	1.35793528	1035
58	1981	1.36637528	1036
58	2008	1.37481528	1037
58	2073	1.38325528	1038
58	2100	1.39169528	1039
58	2155	1.40013528	1040
58	2182	1.40857528	1041
58	2247	1.41701528	1042
58	2274	1.42545528	1043
58	2329	1.43389528	1044
58	2356	1.44233528	1045
58	2421	1.45077528	1046
58	2448	1.45921528	1047
58	2503	1.46765528	1049
58	2529	1.47609528	1050
58	2605	1.48453528	1052
58	2662	1.49297528	1053
58	2709	1.50141528	1056
58	2745	1.50985528	1057
58	2791	1.51829528	1059
58	2827	1.52673528	1060
58	2873	1.53517528	1063
58	2919	1.54361528	1064
58	2966	1.55205528	1066
58	3002	1.56049528	1067
58	3048	1.56893528	1070
58	3095	1.57737528	1071
58	3142	1.58581528	1073
58	3178	1.59425528	1074
58	3224	1.60269528	1077
58	3270	1.61113528	1078
58	3316	1.61957528	1080
58	3353	1.62801528	1081
58	3400	1.63645528	1084
58	3446	1.64489528	1085
58	3493	1.65333528	1087
58	3529	1.66177528	1088
58	3585	1.67021528	1091
58	3631	1.67865528	1048
58	3694	1.68709528	1051
58	3741	1.69553528	1054
58	3798	1.70397528	1055
58	3851	1.71241528	1058
58	3894	1.72085528	1061
58	3931	1.72929528	1062
58	3971	1.73773528	1065
58	4014	1.74617528	1068
58	4051	1.75461528	1069
58	4088	1.76305528	1072
58	4131	1.77149528	1075
58	4168	1.77993528	1076
58	4211	1.78837528	1079
58	4248	1.79681528	1082
58	4285	1.80525528	1083
58	4325	1.81369528	1093
58	4361	1.82213528	1086
58	4404	1.83057528	1094
58	4440	1.83901528	1095
58	4497	1.84745528	1096
58	4544	1.85589528	1097
58	4581	1.86433528	1098
58	4618	1.87277528	1089
58	4654	1.88121528	1090
58	4692	1.88965528	1092
58	4756	2.11855304	1099
59	69	1.03276552	1
61	378	1.05408728	1
60	378	1.05408728	1
62	358	1.05364728	1
65	69	1.03276552	65535
65	4853	2.360060048	0
66	69	1.03276552	4380
66	4853	2.360060048	0
63	69	1.03276552	3
63	359	1.05364728	1
63	4853	2.360060048	0
64	359	1.05364728	0.02088176
64	4853	2.360060048	0
69	69	1.03276552	1
71	379	1.05408728	1
70	379	1.05408728	1
72	359	1.05364728	1
40	415	1.06253528	64535
40	507	1.07941528	64535
40	589	1.09629528	64535
40	681	1.11317528	64535
40	763	1.13005528	64535
40	855	1.14693528	64535
40	937	1.16381528	64535
40	1029	1.18069528	64535
40	1111	1.19757528	64535
40	1203	1.21445528	64535
40	1285	1.23133528	64535
40	1377	1.24821528	64535
40	1459	1.26509528	64535
40	1551	1.28197528	64535
40	1633	1.29885528	64535
40	1725	1.31573528	64535
40	1807	1.33261528	64535
40	1899	1.34949528	64535
40	1981	1.36637528	64535
40	2073	1.38325528	64535
40	2155	1.40013528	64535
40	2247	1.41701528	64535
40	2329	1.43389528	64535
40	2421	1.45077528	64535
40	2503	1.46765528	64535
40	2529	1.47609528	63535
40	2605	1.48453528	62535
40	2662	1.49297528	62535
40	2709	1.50141528	62535
40	2745	1.50985528	61535
40	2791	1.51829528	60535
40	2827	1.52673528	59535
40	2873	1.53517528	58535
40	2919	1.54361528	57535
40	2966	1.55205528	57535
40	3002	1.56049528	56535
40	3048	1.56893528	55535
40	3095	1.57737528	55535
40	3142	1.58581528	55535
40	3178	1.59425528	54535
40	3224	1.60269528	53535
40	3270	1.61113528	52535
40	3316	1.61957528	51535
40	3353	1.62801528	51535
40	3400	1.63645528	51535
40	3446	1.64489528	50535
40	3493	1.65333528	50535
40	3529	1.66177528	49535
40	3585	1.67021528	48535
40	3631	1.67865528	47535
40	3694	1.68709528	49535
40	3741	1.69553528	49535
40	3798	1.70397528	49535
40	3851	1.71241528	51535
40	3894	1.72085528	53535
40	3931	1.72929528	53535
40	3971	1.73773528	54535
40	4014	1.74617528	56535
40	4051	1.75461528	56535
40	4088	1.76305528	56535
40	4131	1.77149528	58535
40	4168	1.77993528	58535
40	4211	1.78837528	60535
40	4248	1.79681528	60535
40	4285	1.80525528	60535
40	4325	1.81369528	61535
40	4361	1.82213528	60535
40	4404	1.83057528	62535
40	4440	1.83901528	61535
40	4497	1.84745528	61535
40	4544	1.85589528	61535
40	4581	1.86433528	61535
40	4618	1.87277528	61535
40	4654	1.88121528	61535
40	4712	2.08965528	65535
40	4761	2.31855304	65535
86	420	1.06253528	1000
86	465	1.07097528	2000
86	512	1.07941528	3000
86	537	1.08785528	4000
86	594	1.09629528	5000
86	619	1.10473528	6000
86	686	1.11317528	7000
86	711	1.12161528	8000
86	768	1.13005528	9000
86	793	1.13849528	10000
86	860	1.14693528	11000
86	885	1.15537528	12000
86	942	1.16381528	13000
86	967	1.17225528	14000
86	1034	1.18069528	15000
86	1059	1.18913528	16000
86	1116	1.19757528	17000
86	1141	1.20601528	18000
86	1208	1.21445528	19000
86	1233	1.22289528	20000
86	1290	1.23133528	21000
86	1315	1.23977528	22000
86	1382	1.24821528	23000
86	1407	1.25665528	24000
86	1464	1.26509528	25000
86	1489	1.27353528	26000
86	1556	1.28197528	27000
86	1581	1.29041528	28000
86	1638	1.29885528	29000
86	1663	1.30729528	30000
86	1730	1.31573528	31000
86	1755	1.32417528	32000
86	1812	1.33261528	33000
86	1837	1.34105528	34000
86	1904	1.34949528	35000
86	1929	1.35793528	36000
86	1986	1.36637528	37000
86	2011	1.37481528	38000
86	2078	1.38325528	39000
86	2103	1.39169528	40000
86	2160	1.40013528	41000
86	2185	1.40857528	42000
86	2252	1.41701528	43000
86	2277	1.42545528	44000
86	2334	1.43389528	45000
86	2359	1.44233528	46000
86	2426	1.45077528	47000
86	2451	1.45921528	48000
86	2610	1.48453528	49000
86	2667	1.49297528	50000
86	2924	1.54361528	51000
86	3053	1.56893528	52000
86	3100	1.57737528	53000
86	3321	1.61957528	54000
86	3358	1.62801528	55000
86	3451	1.64489528	56000
86	3640	1.67865528	57000
86	3641	1.67865528	58000
86	3642	1.67865528	59000
86	3699	1.68709528	60000
86	3746	1.69553528	61000
86	3807	1.70397528	62000
86	3808	1.70397528	63000
86	3809	1.70397528	64000
86	3860	1.71241528	65000
86	3861	1.71241528	66000
86	3862	1.71241528	67000
86	3899	1.72085528	68000
86	3938	1.72929528	69000
86	3939	1.72929528	70000
86	3980	1.73773528	71000
86	3981	1.73773528	72000
86	3982	1.73773528	73000
86	4019	1.74617528	74000
86	4056	1.75461528	75000
86	4097	1.76305528	76000
86	4098	1.76305528	77000
86	4099	1.76305528	78000
86	4136	1.77149528	79000
86	4177	1.77993528	80000
86	4178	1.77993528	81000
86	4179	1.77993528	82000
86	4216	1.78837528	83000
86	4253	1.79681528	84000
86	4292	1.80525528	85000
86	4293	1.80525528	86000
86	4370	1.82213528	87000
86	4371	1.82213528	88000
86	4372	1.82213528	89000
86	4445	1.83901528	90000
86	4502	1.84745528	91000
86	4549	1.85589528	92000
86	4586	1.86433528	93000
86	4623	1.87277528	94000
86	4661	1.88121528	95000
86	4662	1.88121528	96000
86	4699	1.88965528	97000
86	4700	1.88965528	98000
86	4701	1.88965528	99000
86	4759	2.11855304	100000
87	420	1.06253528	0.018984976
87	465	1.07097528	0.027424976
87	512	1.07941528	0.035864976
87	537	1.08785528	0.044304976
87	594	1.09629528	0.052744976
87	619	1.10473528	0.061184976
87	686	1.11317528	0.069624976
87	711	1.12161528	0.078064976
87	768	1.13005528	0.086504976
87	793	1.13849528	0.094944976
87	860	1.14693528	0.103384976
87	885	1.15537528	0.111824976
87	942	1.16381528	0.120264976
87	967	1.17225528	0.128704976
87	1034	1.18069528	0.137144976
87	1059	1.18913528	0.145584976
87	1116	1.19757528	0.154024976
87	1141	1.20601528	0.162464976
87	1208	1.21445528	0.170904976
87	1233	1.22289528	0.179344976
87	1290	1.23133528	0.187784976
87	1315	1.23977528	0.196224976
87	1382	1.24821528	0.204664976
87	1407	1.25665528	0.213104976
87	1464	1.26509528	0.221544976
87	1489	1.27353528	0.229984976
87	1556	1.28197528	0.238424976
87	1581	1.29041528	0.246864976
87	1638	1.29885528	0.255304976
87	1663	1.30729528	0.263744976
87	1730	1.31573528	0.272184976
87	1755	1.32417528	0.280624976
87	1812	1.33261528	0.289064976
87	1837	1.34105528	0.297504976
87	1904	1.34949528	0.305944976
87	1929	1.35793528	0.314384976
87	1986	1.36637528	0.322824976
87	2011	1.37481528	0.331264976
87	2078	1.38325528	0.339704976
87	2103	1.39169528	0.348144976
87	2160	1.40013528	0.356584976
87	2185	1.40857528	0.365024976
87	2252	1.41701528	0.373464976
87	2277	1.42545528	0.381904976
87	2334	1.43389528	0.390344976
87	2359	1.44233528	0.398784976
87	2426	1.45077528	0.407224976
87	2451	1.45921528	0.415664976
87	2610	1.48453528	0.440984976
87	2667	1.49297528	0.449424976
87	2924	1.54361528	0.500064976
87	3053	1.56893528	0.525384976
87	3100	1.57737528	0.533824976
87	3321	1.61957528	0.576024976
87	3358	1.62801528	0.584464976
87	3451	1.64489528	0.601344976
87	3640	1.67865528	0.635104976
87	3641	1.67865528	0.635104976
87	3642	1.67865528	0.635104976
87	3699	1.68709528	0.643544976
87	3746	1.69553528	0.651984976
87	3807	1.70397528	0.660424976
87	3808	1.70397528	0.660424976
87	3809	1.70397528	0.660424976
87	3860	1.71241528	0.668864976
87	3861	1.71241528	0.668864976
87	3862	1.71241528	0.668864976
87	3899	1.72085528	0.677304976
87	3938	1.72929528	0.685744976
87	3939	1.72929528	0.685744976
87	3980	1.73773528	0.694184976
87	3981	1.73773528	0.694184976
87	3982	1.73773528	0.694184976
87	4019	1.74617528	0.702624976
87	4056	1.75461528	0.711064976
87	4097	1.76305528	0.719504976
87	4098	1.76305528	0.719504976
87	4099	1.76305528	0.719504976
87	4136	1.77149528	0.727944976
87	4177	1.77993528	0.736384976
87	4178	1.77993528	0.736384976
87	4179	1.77993528	0.736384976
87	4216	1.78837528	0.744824976
87	4253	1.79681528	0.753264976
87	4292	1.80525528	0.761704976
87	4293	1.80525528	0.761704976
87	4370	1.82213528	0.778584976
87	4371	1.82213528	0.778584976
87	4372	1.82213528	0.778584976
87	4445	1.83901528	0.795464976
87	4502	1.84745528	0.803904976
87	4549	1.85589528	0.812344976
87	4586	1.86433528	0.820784976
87	4623	1.87277528	0.829224976
87	4661	1.88121528	0.837664976
87	4662	1.88121528	0.837664976
87	4699	1.88965528	0.846104976
87	4700	1.88965528	0.846104976
87	4701	1.88965528	0.846104976
87	4759	2.11855304	1.075002736
2	286	1.043550304	0
2	287	1.043550304	0.002
2	288	1.043550304	0.005996
2	289	1.043550304	0.011984008
2	290	1.043550304	0.019960039984
2	483	1.07297616	0.019784641364101
2	558	1.08985616	0.019684655267372
2	559	1.08985616	0.021645285956837
2	643	1.10673616	0.021535951261332
2	644	1.10673616	0.02349287935881
2	645	1.10673616	0.027445893600092
2	732	1.12361616	0.027307328079304
2	733	1.12361616	0.029252713423145
2	817	1.14049616	0.029104952080504
2	818	1.14049616	0.031046742176343
2	819	1.14049616	0.034984648691991
2	906	1.15737616	0.034808022412802
2	907	1.15737616	0.036738406367976
2	991	1.17425616	0.036552833283767
2	992	1.17425616	0.0384797276172
2	993	1.17425616	0.042402768161965
2	1080	1.19113616	0.042188690174969
2	1081	1.19113616	0.044104312794619
2	1165	1.20801616	0.043881533034652
2	1166	1.20801616	0.045793769968583
2	1167	1.20801616	0.049702182428646
2	1254	1.22489616	0.04945125203837
2	1255	1.22489616	0.051352349534293
2	1339	1.24177616	0.05109295848208
2	1340	1.24177616	0.052990772565115
2	1341	1.24177616	0.056884791019985
2	1428	1.25865616	0.05659759794085
2	1429	1.25865616	0.058484402744968
2	1513	1.27553616	0.058188986256654
2	1514	1.27553616	0.060072608284141
2	1515	1.27553616	0.063952463067573
2	1602	1.29241616	0.063629587577353
2	1603	1.29241616	0.065502328402198
2	1687	1.30929616	0.065171462959024
2	1688	1.30929616	0.067041120033106
2	1689	1.30929616	0.07090703779304
2	1776	1.32617616	0.070549050883868
2	1777	1.32617616	0.0724079527821
2	1861	1.34305616	0.072042205640419
2	1862	1.34305616	0.073898121229138
2	1863	1.34305616	0.07775032498668
2	1950	1.35993616	0.077357788513638
2	1951	1.35993616	0.079203072936611
2	2035	1.37681616	0.078803002275504
2	2036	1.37681616	0.080645396270953
2	2037	1.37681616	0.084484105478411
2	2124	1.39369616	0.084057572305743
2	2125	1.39369616	0.085889457161132
2	2209	1.41057616	0.085455612227665
2	2210	1.41057616	0.087284701003209
2	2211	1.41057616	0.091110131601203
2	2298	1.42745616	0.090650145746183
2	2299	1.42745616	0.092468845454691
2	2383	1.44433616	0.092001766706844
2	2384	1.44433616	0.09381776317343
2	2385	1.44433616	0.097630127647083
2	2472	1.46121616	0.097137224421589
2	2473	1.46121616	0.098942949972746
2	2567	1.478128224	0.098442221331879
2	2568	1.478128224	0.10024533688922
2	2569	1.478128224	0.10404484621544
2	2638	1.486568224	0.10378226389105
2	3561	1.664160928	0.098392685053812
2	3670	1.681072992	0.097894493066041
2	3774	1.697888864	0.097401637126687
2	4473	1.841080287998	0.093302332854063
3	286	1.043550304	1
3	287	1.043550304	2
3	288	1.043550304	3
3	289	1.043550304	4
3	290	1.043550304	5
3	292	1.043550744	4
3	303	1.043559184	3
3	309	1.043567624	2
3	315	1.043576064	1
3	321	1.043584504	0
3	483	1.07297616	1
3	486	1.0729846	0
3	558	1.08985616	1
3	559	1.08985616	2
3	562	1.0898646	1
3	568	1.08987304	0
3	643	1.10673616	1
3	644	1.10673616	2
3	645	1.10673616	3
3	648	1.1067446	2
3	654	1.10675304	1
3	660	1.10676148	0
3	732	1.12361616	1
3	733	1.12361616	2
3	736	1.1236246	1
3	742	1.12363304	0
3	817	1.14049616	1
3	818	1.14049616	2
3	819	1.14049616	3
3	822	1.1405046	2
3	828	1.14051304	1
3	834	1.14052148	0
3	906	1.15737616	1
3	907	1.15737616	2
3	910	1.1573846	1
3	916	1.15739304	0
3	991	1.17425616	1
3	992	1.17425616	2
3	993	1.17425616	3
3	996	1.1742646	2
3	1002	1.17427304	1
3	1008	1.17428148	0
3	1080	1.19113616	1
3	1081	1.19113616	2
3	1084	1.1911446	1
3	1090	1.19115304	0
3	1165	1.20801616	1
3	1166	1.20801616	2
3	1167	1.20801616	3
3	1170	1.2080246	2
3	1176	1.20803304	1
3	1182	1.20804148	0
3	1254	1.22489616	1
3	1255	1.22489616	2
3	1258	1.2249046	1
3	1264	1.22491304	0
3	1339	1.24177616	1
3	1340	1.24177616	2
3	1341	1.24177616	3
3	1344	1.2417846	2
3	1350	1.24179304	1
3	1356	1.24180148	0
3	1428	1.25865616	1
3	1429	1.25865616	2
3	1432	1.2586646	1
3	1438	1.25867304	0
3	1513	1.27553616	1
3	1514	1.27553616	2
3	1515	1.27553616	3
3	1518	1.2755446	2
3	1524	1.27555304	1
3	1530	1.27556148	0
3	1602	1.29241616	1
3	1603	1.29241616	2
3	1606	1.2924246	1
3	1612	1.29243304	0
3	1687	1.30929616	1
3	1688	1.30929616	2
3	1689	1.30929616	3
3	1692	1.3093046	2
3	1698	1.30931304	1
3	1704	1.30932148	0
3	1776	1.32617616	1
3	1777	1.32617616	2
3	1780	1.3261846	1
3	1786	1.32619304	0
3	1861	1.34305616	1
3	1862	1.34305616	2
3	1863	1.34305616	3
3	1866	1.3430646	2
3	1872	1.34307304	1
3	1878	1.34308148	0
3	1950	1.35993616	1
3	1951	1.35993616	2
3	1954	1.3599446	1
3	1960	1.35995304	0
3	2035	1.37681616	1
3	2036	1.37681616	2
3	2037	1.37681616	3
3	2040	1.3768246	2
3	2046	1.37683304	1
3	2052	1.37684148	0
3	2124	1.39369616	1
3	2125	1.39369616	2
3	2128	1.3937046	1
3	2134	1.39371304	0
3	2209	1.41057616	1
3	2210	1.41057616	2
3	2211	1.41057616	3
3	2214	1.4105846	2
3	2220	1.41059304	1
3	2226	1.41060148	0
3	2298	1.42745616	1
3	2299	1.42745616	2
3	2302	1.4274646	1
3	2308	1.42747304	0
3	2383	1.44433616	1
3	2384	1.44433616	2
3	2385	1.44433616	3
3	2388	1.4443446	2
3	2394	1.44435304	1
3	2400	1.44436148	0
3	2472	1.46121616	1
3	2473	1.46121616	2
3	2476	1.4612246	1
3	2482	1.46123304	0
3	2567	1.478128224	1
3	2568	1.478128224	2
3	2569	1.478128224	3
3	2572	1.478136664	2
3	2578	1.478145104	1
3	2584	1.478153544	0
3	2638	1.486568224	1
3	2641	1.486576664	0
3	3561	1.664160928	1
3	3564	1.664169368	0
3	3670	1.681072992	1
3	3673	1.681081432	0
3	3774	1.697888864	1
3	3777	1.697897304	0
3	4473	1.841080287998	1
3	4476	1.841088727998	0
10	82	1.03276552	0
11	82	1.03276552	1
11	86	1.03276596	0
19	300	1.043550744	0
19	307	1.043559184	0.002
19	313	1.043567624	0.005996
19	319	1.043576064	0.011984008
19	325	1.043584504	0.019960039984
19	330	1.043592944	0.029920119904032
19	490	1.0729846	0.031860279664224
19	495	1.07299304	0.035796559104895
19	566	1.0898646	0.037724965986686
19	572	1.08987304	0.041649516054712
19	577	1.08988148	0.047566217022603
19	652	1.1067446	0.051471084588558
19	658	1.10675304	0.057368142419381
19	664	1.10676148	0.065253406134542
19	669	1.10676992	0.075122899322273
19	740	1.1236246	0.082972653523628
19	746	1.12363304	0.092806708216581
19	751	1.12364148	0.10462109480015
19	826	1.1405046	0.11441185261055
19	832	1.14051304	0.12618302890533
19	838	1.14052148	0.13993066284752
19	843	1.14052992	0.15565080152182
19	914	1.1573846	0.16933949991878
19	920	1.15739304	0.18500082091894
19	925	1.15740148	0.2026308192771
19	1000	1.1742646	0.21822555763855
19	1006	1.17427304	0.23578910652327
19	1012	1.17428148	0.25531752831022
19	1017	1.17428992	0.2768068932536
19	1088	1.1911446	0.2962532794671
19	1094	1.19115304	0.31766077290816
19	1099	1.19116148	0.34102545136235
19	1174	1.2080246	0.36234340045962
19	1180	1.20803304	0.3856187136587
19	1186	1.20804148	0.41084747623138
19	1191	1.20804992	0.43802578127892