file 13724 1341498660                                           
version 2
run General-0-20120705-17:30:56-1596
attr configname General
attr datetime 20120705-17:30:56
attr experiment General
attr inifile omnetpp.ini
attr iterationvars ""
attr iterationvars2 $repetition=0
attr measurement ""
attr network Test
attr processid 1596
attr repetition 0
attr replication #0
attr resultdir results
attr runnumber 0
attr seedset 0

vector 4  Test.MME.eth[0].mac  framesSent  ETV
vector 6  Test.MME.eth[0].mac  bytesSent  ETV
vector 20  Test.HSS.eth[0].mac  framesSent  ETV
vector 22  Test.HSS.eth[0].mac  bytesSent  ETV
vector 21  Test.HSS.eth[0].mac  framesReceivedOK  ETV
vector 23  Test.HSS.eth[0].mac  bytesReceivedOK  ETV
vector 27  Test.HSS.eth[0].mac  framesPassedToHL  ETV
vector 5  Test.MME.eth[0].mac  framesReceivedOK  ETV
vector 7  Test.MME.eth[0].mac  bytesReceivedOK  ETV
vector 11  Test.MME.eth[0].mac  framesPassedToHL  ETV
vector 18  Test.HSS.eth[0].queue  "queue length"  ETV
vector 2  Test.MME.eth[0].queue  "queue length"  ETV
vector 70  Test.HSS.sctp  "Slow Start Threshold 10:192.168.1.2"  ETV
vector 71  Test.HSS.sctp  "Congestion Window 10:192.168.1.2"  ETV
vector 74  Test.HSS.sctp  "HB Sent 10:192.168.1.2"  ETV
vector 68  Test.HSS.sctp  "RTO 10:192.168.1.2"  ETV
vector 59  Test.MME.sctp  "Slow Start Threshold 9:192.168.1.1"  ETV
vector 60  Test.MME.sctp  "Congestion Window 9:192.168.1.1"  ETV
vector 63  Test.MME.sctp  "HB Sent 9:192.168.1.1"  ETV
vector 57  Test.MME.sctp  "RTO 9:192.168.1.1"  ETV
vector 42  Test.MME.sctp  "HB ACK Sent 5:192.168.1.1"  ETV
vector 43  Test.MME.sctp  "HB Received 5:192.168.1.1"  ETV
vector 53  Test.HSS.sctp  "HB ACK Sent 8:192.168.1.2"  ETV
vector 54  Test.HSS.sctp  "HB Received 8:192.168.1.2"  ETV
vector 37  Test.MME.sctp  "Slow Start Threshold 5:192.168.1.1"  ETV
vector 38  Test.MME.sctp  "Congestion Window 5:192.168.1.1"  ETV
vector 41  Test.MME.sctp  "HB Sent 5:192.168.1.1"  ETV
vector 35  Test.MME.sctp  "RTO 5:192.168.1.1"  ETV
vector 48  Test.HSS.sctp  "Slow Start Threshold 8:192.168.1.2"  ETV
vector 49  Test.HSS.sctp  "Congestion Window 8:192.168.1.2"  ETV
vector 52  Test.HSS.sctp  "HB Sent 8:192.168.1.2"  ETV
vector 46  Test.HSS.sctp  "RTO 8:192.168.1.2"  ETV
vector 86  Test.MME.sctp  "SendQueue of Association 5"  ETV
vector 39  Test.MME.sctp  "TSN Sent 5:192.168.1.1"  ETV
vector 89  Test.HSS.sctp  "SendQueue of Association 8"  ETV
vector 50  Test.HSS.sctp  "TSN Sent 8:192.168.1.2"  ETV
vector 66  Test.MME.sctp  "HB ACK Received 9:192.168.1.1"  ETV
vector 58  Test.MME.sctp  "RTT 9:192.168.1.1"  ETV
vector 77  Test.HSS.sctp  "HB ACK Received 10:192.168.1.2"  ETV
vector 69  Test.HSS.sctp  "RTT 10:192.168.1.2"  ETV
vector 64  Test.MME.sctp  "HB ACK Sent 9:192.168.1.1"  ETV
vector 65  Test.MME.sctp  "HB Received 9:192.168.1.1"  ETV
vector 75  Test.HSS.sctp  "HB ACK Sent 10:192.168.1.2"  ETV
vector 76  Test.HSS.sctp  "HB Received 10:192.168.1.2"  ETV
vector 62  Test.MME.sctp  "TSN Received 9:192.168.1.1"  ETV
vector 32  Test.MME.sctp  "Advertised Receiver Window 4"  ETV
vector 73  Test.HSS.sctp  "TSN Received 10:192.168.1.2"  ETV
vector 33  Test.HSS.sctp  "Advertised Receiver Window 7"  ETV
vector 83  Test.MME.sctp  "SendQueue of Association 9"  ETV
vector 61  Test.MME.sctp  "TSN Sent 9:192.168.1.1"  ETV
vector 44  Test.MME.sctp  "HB ACK Received 5:192.168.1.1"  ETV
vector 36  Test.MME.sctp  "RTT 5:192.168.1.1"  ETV
vector 55  Test.HSS.sctp  "HB ACK Received 8:192.168.1.2"  ETV
vector 47  Test.HSS.sctp  "RTT 8:192.168.1.2"  ETV
vector 51  Test.HSS.sctp  "TSN Received 8:192.168.1.2"  ETV
vector 45  Test.HSS.sctp  "Advertised Receiver Window 8"  ETV
70	3655 54 141 471 1.000047199995 1.000155679983 2 0 65535 65535 4294836225
71	3709 53 141 471 1.000047199995 1.000155679983 2 0 4380 4380 19184400
68	3762 75 141 471 1.000047199995 1.000155679983 3 0 3 4 10
69	3837 63 252 471 1.000067679992 1.000155679983 2 0 2.0479997e-005 2.0479997e-005 4.1943027712001e-010
73	3900 27 300 300 1.00009423999 1.00009423999 1 1000 1000 1000 1000000
74	3927 25 141 141 1.000047199995 1.000047199995 1 1 1 1 1
76	3952 25 272 272 1.000074559991 1.000074559991 1 1 1 1 1
75	3977 25 272 272 1.000074559991 1.000074559991 1 1 1 1 1
77	4002 25 252 252 1.000067679992 1.000067679992 1 1 1 1 1
33	4027 28 300 300 1.00009423999 1.00009423999 1 65375 65375 65375 4273890625
37	4055 54 211 472 1.000060799993 1.000155679983 2 0 65535 65535 4294836225
38	4109 53 211 472 1.000060799993 1.000155679983 2 0 4380 4380 19184400
35	4162 75 211 472 1.000060799993 1.000155679983 3 0 3 4 10
36	4237 63 339 472 1.000101119989 1.000155679983 2 0 4.0319996e-005 4.0319996e-005 1.62570207744e-009
39	4300 28 218 218 1.000060799993 1.000060799993 1 1000 1000 1000 1000000
41	4328 25 211 211 1.000060799993 1.000060799993 1 1 1 1 1
43	4353 25 183 183 1.000054079994 1.000054079994 1 1 1 1 1
42	4378 25 183 183 1.000054079994 1.000054079994 1 1 1 1 1
44	4403 25 339 339 1.000101119989 1.000101119989 1 1 1 1 1
86	4428 25 218 218 1.000060799993 1.000060799993 1 0 0 0 0
59	4453 173 142 687 1.000047199995 34.000047199995 6 0 65535 327675 21474181125
60	4626 168 142 687 1.000047199995 34.000047199995 6 0 4380 21900 95922000
57	4794 178 142 687 1.000047199995 34.000047199995 7 0 3 8 14
58	4972 218 251 687 1.000067679992 34.000047199995 6 0 0.200019199998 0.600117439987 0.1200222751551
61	5190 113 314 618 1.00009423999 28.708815202157 4 2000 2003 8006 16024014
62	5303 113 299 650 1.00009423999 28.708838882155 4 1000 1003 4006 4012014
63	5416 25 142 142 1.000047199995 1.000047199995 1 1 1 1 1
65	5441 25 271 271 1.000074559991 1.000074559991 1 1 1 1 1
64	5466 25 271 271 1.000074559991 1.000074559991 1 1 1 1 1
66	5491 25 251 251 1.000067679992 1.000067679992 1 1 1 1 1
32	5516 146 299 669 1.00009423999 28.908838882155 5 65375 65535 327515 21453235525
83	5662 101 314 618 1.00009423999 28.708815202157 4 0 0 0 0
48	5763 174 212 687 1.000060799993 34.000047199995 6 0 65535 327675 21474181125
49	5937 169 212 687 1.000060799993 34.000047199995 6 0 4380 21900 95922000
46	6106 153 212 687 1.000060799993 34.000047199995 6 0 3 7 13
47	6259 180 340 687 1.000101119989 34.000047199995 5 0 0.200019199998 0.60009695999 0.12002265869328
50	6439 114 220 636 1.000060799993 28.708826562156 4 1000 1003 4006 4012014
51	6553 114 372 632 1.000128639987 28.708826562156 4 2000 2003 8006 16024014
52	6667 25 212 212 1.000060799993 1.000060799993 1 1 1 1 1
54	6692 25 184 184 1.000054079994 1.000054079994 1 1 1 1 1
53	6717 25 184 184 1.000054079994 1.000054079994 1 1 1 1 1
55	6742 25 340 340 1.000101119989 1.000101119989 1 1 1 1 1
45	6767 178 372 654 1.000128639987 28.908826562156 6 65363 65535 393038 25746502894
89	6945 102 220 636 1.000060799993 28.708826562156 4 0 0 0 0
2	7047 473 46 365 1.000006719999 1.000128639987 20 0 2 14 18
4	7520 541 27 678 1.000006719999 28.908845762154 22 1 22 253 3795
5	8061 541 30 664 1.000006719999 28.908833442155 22 1 22 253 3795
6	8602 583 27 678 1.000006719999 28.908845762154 22 64 2116 24154 35499636
7	9185 583 30 664 1.000006719999 28.908833442155 22 64 1956 22434 29915876
11	9768 563 30 664 1.000006719999 28.908833442155 22 1 22 253 3795
18	10331 494 44 412 1.000006719999 1.000142239985 20 0 2 14 18
20	10825 563 28 663 1.000006719999 28.908833442155 22 1 22 253 3795
21	11388 563 29 679 1.000006719999 28.908845762154 22 1 22 253 3795
22	11951 605 28 663 1.000006719999 28.908833442155 22 64 1956 22434 29915876
23	12556 605 29 679 1.000006719999 28.908845762154 22 64 2116 24154 35499636
27	13161 563 29 679 1.000006719999 28.908845762154 22 1 22 253 3795
