version 2
run General-0-20120824-21:07:43-5470
attr configname General
attr datetime 20120824-21:07:43
attr experiment General
attr inifile omnetpp.ini
attr iterationvars ""
attr iterationvars2 $repetition=0
attr measurement ""
attr network NClients
attr processid 5470
attr repetition 0
attr replication #0
attr resultdir results
attr runnumber 0
attr seedset 0

vector 53  NClients.srv.sctp  "Slow Start Threshold 6:192.168.0.6"  ETV
vector 54  NClients.srv.sctp  "Congestion Window 6:192.168.0.6"  ETV
vector 57  NClients.srv.sctp  "HB Sent 6:192.168.0.6"  ETV
vector 51  NClients.srv.sctp  "RTO 6:192.168.0.6"  ETV
vector 36  NClients.srv.ppp[0].queue  "queue length"  ETV
vector 14  NClients.r3.ppp[0].queue  "queue length"  ETV
vector 10  NClients.r2.ppp[0].queue  "queue length"  ETV
vector 4  NClients.r1.ppp[2].queue  "queue length"  ETV
vector 47  NClients.cli[2].sctp  "HB ACK Sent 3:192.168.0.8"  ETV
vector 48  NClients.cli[2].sctp  "HB Received 3:192.168.0.8"  ETV
vector 42  NClients.cli[2].sctp  "Slow Start Threshold 3:192.168.0.8"  ETV
vector 43  NClients.cli[2].sctp  "Congestion Window 3:192.168.0.8"  ETV
vector 46  NClients.cli[2].sctp  "HB Sent 3:192.168.0.8"  ETV
vector 40  NClients.cli[2].sctp  "RTO 3:192.168.0.8"  ETV
vector 68  NClients.cli[2].sctp  "SendQueue of Association 3"  ETV
vector 44  NClients.cli[2].sctp  "TSN Sent 3:192.168.0.8"  ETV
vector 28  NClients.cli[2].ppp[0].queue  "queue length"  ETV
vector 60  NClients.srv.sctp  "HB ACK Received 6:192.168.0.6"  ETV
vector 52  NClients.srv.sctp  "RTT 6:192.168.0.6"  ETV
vector 58  NClients.srv.sctp  "HB ACK Sent 6:192.168.0.6"  ETV
vector 59  NClients.srv.sctp  "HB Received 6:192.168.0.6"  ETV
vector 49  NClients.cli[2].sctp  "HB ACK Received 3:192.168.0.8"  ETV
vector 41  NClients.cli[2].sctp  "RTT 3:192.168.0.8"  ETV
vector 56  NClients.srv.sctp  "TSN Received 6:192.168.0.6"  ETV
vector 38  NClients.srv.sctp  "Advertised Receiver Window 5"  ETV
vector 64  NClients.srv.sctpApp[0]  "App: Received Bytes of assoc 6"  ETV
vector 65  NClients.srv.sctpApp[0]  "App: EndToEndDelay of assoc 6"  ETV
vector 83  NClients.srv.sctp  "Slow Start Threshold 7:192.168.0.4"  ETV
vector 84  NClients.srv.sctp  "Congestion Window 7:192.168.0.4"  ETV
vector 87  NClients.srv.sctp  "HB Sent 7:192.168.0.4"  ETV
vector 81  NClients.srv.sctp  "RTO 7:192.168.0.4"  ETV
vector 0  NClients.r1.ppp[0].queue  "queue length"  ETV
vector 77  NClients.cli[0].sctp  "HB ACK Sent 1:192.168.0.8"  ETV
vector 78  NClients.cli[0].sctp  "HB Received 1:192.168.0.8"  ETV
vector 72  NClients.cli[0].sctp  "Slow Start Threshold 1:192.168.0.8"  ETV
vector 73  NClients.cli[0].sctp  "Congestion Window 1:192.168.0.8"  ETV
vector 76  NClients.cli[0].sctp  "HB Sent 1:192.168.0.8"  ETV
vector 70  NClients.cli[0].sctp  "RTO 1:192.168.0.8"  ETV
vector 98  NClients.cli[0].sctp  "SendQueue of Association 1"  ETV
vector 74  NClients.cli[0].sctp  "TSN Sent 1:192.168.0.8"  ETV
vector 20  NClients.cli[0].ppp[0].queue  "queue length"  ETV
vector 90  NClients.srv.sctp  "HB ACK Received 7:192.168.0.4"  ETV
vector 82  NClients.srv.sctp  "RTT 7:192.168.0.4"  ETV
vector 88  NClients.srv.sctp  "HB ACK Sent 7:192.168.0.4"  ETV
vector 89  NClients.srv.sctp  "HB Received 7:192.168.0.4"  ETV
vector 79  NClients.cli[0].sctp  "HB ACK Received 1:192.168.0.8"  ETV
vector 71  NClients.cli[0].sctp  "RTT 1:192.168.0.8"  ETV
vector 86  NClients.srv.sctp  "TSN Received 7:192.168.0.4"  ETV
vector 50  NClients.srv.sctp  "Advertised Receiver Window 5"  ETV
vector 94  NClients.srv.sctpApp[0]  "App: Received Bytes of assoc 7"  ETV
vector 95  NClients.srv.sctpApp[0]  "App: EndToEndDelay of assoc 7"  ETV
vector 113  NClients.srv.sctp  "Slow Start Threshold 8:192.168.0.7"  ETV
vector 114  NClients.srv.sctp  "Congestion Window 8:192.168.0.7"  ETV
vector 117  NClients.srv.sctp  "HB Sent 8:192.168.0.7"  ETV
vector 111  NClients.srv.sctp  "RTO 8:192.168.0.7"  ETV
vector 6  NClients.r1.ppp[3].queue  "queue length"  ETV
vector 107  NClients.cli[3].sctp  "HB ACK Sent 4:192.168.0.8"  ETV
vector 108  NClients.cli[3].sctp  "HB Received 4:192.168.0.8"  ETV
vector 102  NClients.cli[3].sctp  "Slow Start Threshold 4:192.168.0.8"  ETV
vector 103  NClients.cli[3].sctp  "Congestion Window 4:192.168.0.8"  ETV
vector 106  NClients.cli[3].sctp  "HB Sent 4:192.168.0.8"  ETV
vector 100  NClients.cli[3].sctp  "RTO 4:192.168.0.8"  ETV
vector 128  NClients.cli[3].sctp  "SendQueue of Association 4"  ETV
vector 104  NClients.cli[3].sctp  "TSN Sent 4:192.168.0.8"  ETV
vector 32  NClients.cli[3].ppp[0].queue  "queue length"  ETV
vector 120  NClients.srv.sctp  "HB ACK Received 8:192.168.0.7"  ETV
vector 112  NClients.srv.sctp  "RTT 8:192.168.0.7"  ETV
vector 118  NClients.srv.sctp  "HB ACK Sent 8:192.168.0.7"  ETV
vector 119  NClients.srv.sctp  "HB Received 8:192.168.0.7"  ETV
vector 109  NClients.cli[3].sctp  "HB ACK Received 4:192.168.0.8"  ETV
vector 101  NClients.cli[3].sctp  "RTT 4:192.168.0.8"  ETV
vector 116  NClients.srv.sctp  "TSN Received 8:192.168.0.7"  ETV
vector 80  NClients.srv.sctp  "Advertised Receiver Window 5"  ETV
vector 124  NClients.srv.sctpApp[0]  "App: Received Bytes of assoc 8"  ETV
vector 125  NClients.srv.sctpApp[0]  "App: EndToEndDelay of assoc 8"  ETV
vector 143  NClients.srv.sctp  "Slow Start Threshold 9:192.168.0.5"  ETV
vector 144  NClients.srv.sctp  "Congestion Window 9:192.168.0.5"  ETV
vector 147  NClients.srv.sctp  "HB Sent 9:192.168.0.5"  ETV
vector 141  NClients.srv.sctp  "RTO 9:192.168.0.5"  ETV
vector 2  NClients.r1.ppp[1].queue  "queue length"  ETV
vector 137  NClients.cli[1].sctp  "HB ACK Sent 2:192.168.0.8"  ETV
vector 138  NClients.cli[1].sctp  "HB Received 2:192.168.0.8"  ETV
vector 132  NClients.cli[1].sctp  "Slow Start Threshold 2:192.168.0.8"  ETV
vector 133  NClients.cli[1].sctp  "Congestion Window 2:192.168.0.8"  ETV
vector 136  NClients.cli[1].sctp  "HB Sent 2:192.168.0.8"  ETV
vector 130  NClients.cli[1].sctp  "RTO 2:192.168.0.8"  ETV
vector 158  NClients.cli[1].sctp  "SendQueue of Association 2"  ETV
vector 134  NClients.cli[1].sctp  "TSN Sent 2:192.168.0.8"  ETV
vector 24  NClients.cli[1].ppp[0].queue  "queue length"  ETV
vector 150  NClients.srv.sctp  "HB ACK Received 9:192.168.0.5"  ETV
vector 142  NClients.srv.sctp  "RTT 9:192.168.0.5"  ETV
vector 148  NClients.srv.sctp  "HB ACK Sent 9:192.168.0.5"  ETV
vector 149  NClients.srv.sctp  "HB Received 9:192.168.0.5"  ETV
vector 139  NClients.cli[1].sctp  "HB ACK Received 2:192.168.0.8"  ETV
vector 131  NClients.cli[1].sctp  "RTT 2:192.168.0.8"  ETV
vector 146  NClients.srv.sctp  "TSN Received 9:192.168.0.5"  ETV
vector 110  NClients.srv.sctp  "Advertised Receiver Window 5"  ETV
vector 154  NClients.srv.sctpApp[0]  "App: Received Bytes of assoc 9"  ETV
vector 155  NClients.srv.sctpApp[0]  "App: EndToEndDelay of assoc 9"  ETV
72	437	0.797139304565	65535
72	7049	27.059232170572	0
73	437	0.797139304565	8940
73	7049	27.059232170572	0
70	437	0.797139304565	3
70	523	0.797501704565	1
70	577	0.800745704565	1
70	1215	1.899252493048	1
70	1405	2.797812881531	1
70	1589	3.696373270014	1
70	1809	4.594933658497	1
70	2025	5.49349404698	1
70	2213	6.392054435463	1
70	2433	7.290614823946	1
70	2587	8.189175212429	1
70	2836	9.087735600912	1
70	3024	9.986295989395	1
70	3273	10.884856377878	1
70	3461	11.783416766361	1
70	3710	12.681977154844	1
70	3869	13.580537543327	1
70	4118	14.47909793181	1
70	4272	15.377658320293	1
70	4521	16.276218708776	1
70	4709	17.174779097259	1
70	4958	18.073339485742	1
70	5146	18.971899874225	1
70	5395	19.870460262708	1
70	5554	20.769020651191	1
70	5769	21.667581039674	1
70	5957	22.566141428157	1
70	6177	23.46470181664	1
70	6394	24.363262205123	1
70	6614	25.261822593606	1
70	6830	26.160382982089	1
70	6991	27.058943370572	1
70	7049	27.059232170572	0
71	523	0.797501704565	0.0003624
71	577	0.800745704565	0.0036064
71	1215	1.899252493048	0.2035528
71	1405	2.797812881531	0.2035528
71	1589	3.696373270014	0.2035528
71	1809	4.594933658497	0.2035528
71	2025	5.49349404698	0.2035528
71	2213	6.392054435463	0.2035528
71	2433	7.290614823946	0.2035528
71	2587	8.189175212429	0.2035528
71	2836	9.087735600912	0.2035528
71	3024	9.986295989395	0.2035528
71	3273	10.884856377878	0.2035528
71	3461	11.783416766361	0.2035528
71	3710	12.681977154844	0.2035528
71	3869	13.580537543327	0.2035528
71	4118	14.47909793181	0.2035528
71	4272	15.377658320293	0.2035528
71	4521	16.276218708776	0.2035528
71	4709	17.174779097259	0.2035528
71	4958	18.073339485742	0.2035528
71	5146	18.971899874225	0.2035528
71	5395	19.870460262708	0.2035528
71	5554	20.769020651191	0.2035528
71	5769	21.667581039674	0.2035528
71	5957	22.566141428157	0.2035528
71	6177	23.46470181664	0.2035528
71	6394	24.363262205123	0.2035528
71	6614	25.261822593606	0.2035528
71	6830	26.160382982089	0.2035528
71	6991	27.058943370572	0.2035528
71	7049	27.059232170572	0
74	441	0.797139304565	1000
74	867	1.695699693048	1001
74	1279	2.594260081531	1002
74	1528	3.492820470014	1003
74	1716	4.391380858497	1004
74	1936	5.28994124698	1005
74	2124	6.188501635463	1006
74	2339	7.087062023946	1007
74	2527	7.985622412429	1008
74	2776	8.884182800912	1009
74	2964	9.782743189395	1010
74	3213	10.681303577878	1011
74	3401	11.579863966361	1012
74	3621	12.478424354844	1013
74	3775	13.376984743327	1014
74	4024	14.27554513181	1015
74	4212	15.174105520293	1016
74	4461	16.072665908776	1017
74	4649	16.971226297259	1018
74	4869	17.869786685742	1019
74	5057	18.768347074225	1020
74	5263	19.666907462708	1021
74	5459	20.565467851191	1022
74	5680	21.464028239674	1023
74	5867	22.362588628157	1024
74	6055	23.26114901664	1025
74	6304	24.159709405123	1026
74	6463	25.058269793606	1027
74	6712	25.956830182089	1028
74	6866	26.855390570572	1029
76	437	0.797139304565	1
78	427	0.797104904565	1
77	427	0.797104904565	1
79	523	0.797501704565	1
98	441	0.797139304565	1
98	441	0.797139304565	0
98	867	1.695699693048	1
98	867	1.695699693048	0
98	1279	2.594260081531	1
98	1279	2.594260081531	0
98	1528	3.492820470014	1
98	1528	3.492820470014	0
98	1716	4.391380858497	1
98	1716	4.391380858497	0
98	1936	5.28994124698	1
98	1936	5.28994124698	0
98	2124	6.188501635463	1
98	2124	6.188501635463	0
98	2339	7.087062023946	1
98	2339	7.087062023946	0
98	2527	7.985622412429	1
98	2527	7.985622412429	0
98	2776	8.884182800912	1
98	2776	8.884182800912	0
98	2964	9.782743189395	1
98	2964	9.782743189395	0
98	3213	10.681303577878	1
98	3213	10.681303577878	0
98	3401	11.579863966361	1
98	3401	11.579863966361	0
98	3621	12.478424354844	1
98	3621	12.478424354844	0
98	3775	13.376984743327	1
98	3775	13.376984743327	0
98	4024	14.27554513181	1
98	4024	14.27554513181	0
98	4212	15.174105520293	1
98	4212	15.174105520293	0
98	4461	16.072665908776	1
98	4461	16.072665908776	0
98	4649	16.971226297259	1
98	4649	16.971226297259	0
98	4869	17.869786685742	1
98	4869	17.869786685742	0
98	5057	18.768347074225	1
98	5057	18.768347074225	0
98	5263	19.666907462708	1
98	5263	19.666907462708	0
98	5459	20.565467851191	1
98	5459	20.565467851191	0
98	5680	21.464028239674	1
98	5680	21.464028239674	0
98	5867	22.362588628157	1
98	5867	22.362588628157	0
98	6055	23.26114901664	1
98	6055	23.26114901664	0
98	6304	24.159709405123	1
98	6304	24.159709405123	0
98	6463	25.058269793606	1
98	6463	25.058269793606	0
98	6712	25.956830182089	1
98	6712	25.956830182089	0
98	6866	26.855390570572	1
98	6866	26.855390570572	0
83	375	0.796928504565	65535
83	7079	27.059370170572	0
84	375	0.796928504565	8940
84	7079	27.059370170572	0
81	375	0.796928504565	3
81	490	0.797281304565	1
81	7079	27.059370170572	0
82	490	0.797281304565	0.0003528
82	7079	27.059370170572	0
86	546	0.800569304565	1000
86	895	1.699076093048	1001
86	1307	2.597636481531	1002
86	1556	3.496196870014	1003
86	1744	4.394757258497	1004
86	1964	5.29331764698	1005
86	2152	6.191878035463	1006
86	2367	7.090438423946	1007
86	2555	7.988998812429	1008
86	2804	8.887559200912	1009
86	2992	9.786119589395	1010
86	3241	10.684679977878	1011
86	3429	11.583240366361	1012
86	3649	12.481800754844	1013
86	3803	13.380361143327	1014
86	4052	14.27892153181	1015
86	4240	15.177481920293	1016
86	4489	16.076042308776	1017
86	4677	16.974602697259	1018
86	4897	17.873163085742	1019
86	5085	18.771723474225	1020
86	5305	19.670283862708	1021
86	5487	20.568844251191	1022
86	5708	21.467404639674	1023
86	5895	22.365965028157	1024
86	6083	23.26452541664	1025
86	6332	24.163085805123	1026
86	6520	25.061646193606	1027
86	6740	25.960206582089	1028
86	6895	26.858766970572	1029
87	375	0.796928504565	1
89	495	0.797325304565	1
88	495	0.797325304565	1
90	490	0.797281304565	1
50	546	0.800569304565	64535
50	1187	1.899076093048	65535
50	1377	2.797636481531	65535
50	1561	3.696196870014	65535
50	1781	4.594757258497	65535
50	1997	5.49331764698	65535
50	2185	6.391878035463	65535
50	2405	7.290438423946	65535
50	2559	8.188998812429	65535
50	2808	9.087559200912	65535
50	2996	9.986119589395	65535
50	3245	10.884679977878	65535
50	3433	11.783240366361	65535
50	3682	12.681800754844	65535
50	3841	13.580361143327	65535
50	4090	14.47892153181	65535
50	4244	15.377481920293	65535
50	4493	16.276042308776	65535
50	4681	17.174602697259	65535
50	4930	18.073163085742	65535
50	5118	18.971723474225	65535
50	5367	19.870283862708	65535
50	5526	20.768844251191	65535
50	5741	21.667404639674	65535
50	5929	22.565965028157	65535
50	6149	23.46452541664	65535
50	6366	24.363085805123	65535
50	6586	25.261646193606	65535
50	6802	26.160206582089	65535
50	6963	27.058766970572	65535
143	984	1.860658212074	65535
143	7333	28.637716224704	0
144	984	1.860658212074	8940
144	7333	28.637716224704	0
141	984	1.860658212074	3
141	1099	1.861011012074	1
141	7333	28.637716224704	0
142	1099	1.861011012074	0.0003528
142	7333	28.637716224704	0
146	1155	1.864299012074	1000
146	1373	2.787468543544	1001
146	1619	3.710691675014	1002
146	1839	4.633914806484	1003
146	2056	5.557137937954	1004
146	2276	6.480361069424	1005
146	2463	7.403584200894	1006
146	2684	8.326807332364	1007
146	2867	9.250030463834	1008
146	3054	10.173253595304	1009
146	3303	11.096476726774	1010
146	3491	12.019699858244	1011
146	3740	12.942922989714	1012
146	3928	13.866146121184	1013
146	4177	14.789369252654	1014
146	4336	15.712592384124	1015
146	4585	16.635815515594	1016
146	4740	17.559038647064	1017
146	4988	18.482261778534	1018
146	5176	19.405484910004	1019
146	5425	20.328708041474	1020
146	5613	21.251931172944	1021
146	5862	22.175154304414	1022
146	6050	23.098377435884	1023
146	6299	24.021600567354	1024
146	6458	24.944823698824	1025
146	6674	25.868046830294	1026
146	6861	26.791269961764	1027
146	7202	27.714493093234	1028
146	7329	28.637716224704	1029
147	984	1.860658212074	1
149	1104	1.861055012074	1
148	1104	1.861055012074	1
150	1099	1.861011012074	1
110	1155	1.864299012074	64535
110	1435	2.987468543544	65535
110	1623	3.910691675014	65535
110	1872	4.833914806484	65535
110	2060	5.757137937954	65535
110	2309	6.680361069424	65535
110	2497	7.603584200894	65535
110	2746	8.526807332364	65535
110	2905	9.450030463834	65535
110	3125	10.373253595304	65535
110	3308	11.296476726774	65535
110	3528	12.219699858244	65535
110	3745	13.142922989714	65535
110	3965	14.066146121184	65535
110	4182	14.989369252654	65535
110	4402	15.912592384124	65535
110	4619	16.835815515594	65535
110	4810	17.759038647064	65535
110	5026	18.682261778534	65535
110	5213	19.605484910004	65535
110	5429	20.528708041474	65535
110	5617	21.451931172944	65535
110	5899	22.375154304414	65535
110	6087	23.298377435884	65535
110	6336	24.221600567354	65535
110	6524	25.144823698824	65535
110	6744	26.068046830294	65535
110	6934	26.991269961764	65535
110	7206	27.914493093234	65535
132	1046	1.860869012074	65535
132	7362	28.637854224704	0
133	1046	1.860869012074	8940
133	7362	28.637854224704	0
130	1046	1.860869012074	3
130	1132	1.861231412074	1
130	1186	1.864475412074	1
130	1463	2.987644943544	1
130	1651	3.910868075014	1
130	1900	4.834091206484	1
130	2088	5.757314337954	1
130	2337	6.680537469424	1
130	2525	7.603760600894	1
130	2774	8.526983732364	1
130	2933	9.450206863834	1
130	3153	10.373429995304	1
130	3336	11.296653126774	1
130	3556	12.219876258244	1
130	3773	13.143099389714	1
130	3993	14.066322521184	1
130	4210	14.989545652654	1
130	4430	15.912768784124	1
130	4647	16.835991915594	1
130	4838	17.759215047064	1
130	5054	18.682438178534	1
130	5241	19.605661310004	1
130	5457	20.528884441474	1
130	5645	21.452107572944	1
130	5927	22.375330704414	1
130	6115	23.298553835884	1
130	6364	24.221776967354	1
130	6552	25.145000098824	1
130	6772	26.068223230294	1
130	6962	26.991446361764	1
130	7234	27.914669493234	1
130	7362	28.637854224704	0
131	1132	1.861231412074	0.0003624
131	1186	1.864475412074	0.0036064
131	1463	2.987644943544	0.2035528
131	1651	3.910868075014	0.2035528
131	1900	4.834091206484	0.2035528
131	2088	5.757314337954	0.2035528
131	2337	6.680537469424	0.2035528
131	2525	7.603760600894	0.2035528
131	2774	8.526983732364	0.2035528
131	2933	9.450206863834	0.2035528
131	3153	10.373429995304	0.2035528
131	3336	11.296653126774	0.2035528
131	3556	12.219876258244	0.2035528
131	3773	13.143099389714	0.2035528
131	3993	14.066322521184	0.2035528
131	4210	14.989545652654	0.2035528
131	4430	15.912768784124	0.2035528
131	4647	16.835991915594	0.2035528
131	4838	17.759215047064	0.2035528
131	5054	18.682438178534	0.2035528
131	5241	19.605661310004	0.2035528
131	5457	20.528884441474	0.2035528
131	5645	21.452107572944	0.2035528
131	5927	22.375330704414	0.2035528
131	6115	23.298553835884	0.2035528
131	6364	24.221776967354	0.2035528
131	6552	25.145000098824	0.2035528
131	6772	26.068223230294	0.2035528
131	6962	26.991446361764	0.2035528
131	7234	27.914669493234	0.2035528
131	7362	28.637854224704	0
134	1050	1.860869012074	1000
134	1345	2.784092143544	1001
134	1591	3.707315275014	1002
134	1811	4.630538406484	1003
134	2028	5.553761537954	1004
134	2248	6.476984669424	1005
134	2435	7.400207800894	1006
134	2656	8.323430932364	1007
134	2839	9.246654063834	1008
134	3026	10.169877195304	1009
134	3275	11.093100326774	1010
134	3463	12.016323458244	1011
134	3712	12.939546589714	1012
134	3900	13.862769721184	1013
134	4149	14.785992852654	1014
134	4308	15.709215984124	1015
134	4557	16.632439115594	1016
134	4712	17.555662247064	1017
134	4960	18.478885378534	1018
134	5148	19.402108510004	1019
134	5397	20.325331641474	1020
134	5585	21.248554772944	1021
134	5834	22.171777904414	1022
134	6022	23.095001035884	1023
134	6242	24.018224167354	1024
134	6430	24.941447298824	1025
134	6646	25.864670430294	1026
134	6833	26.787893561764	1027
134	7174	27.711116693234	1028
134	7300	28.634339824704	1029
136	1046	1.860869012074	1
138	1036	1.860834612074	1
137	1036	1.860834612074	1
139	1132	1.861231412074	1
158	1050	1.860869012074	1
158	1050	1.860869012074	0
158	1345	2.784092143544	1
158	1345	2.784092143544	0
158	1591	3.707315275014	1
158	1591	3.707315275014	0
158	1811	4.630538406484	1
158	1811	4.630538406484	0
158	2028	5.553761537954	1
158	2028	5.553761537954	0
158	2248	6.476984669424	1
158	2248	6.476984669424	0
158	2435	7.400207800894	1
158	2435	7.400207800894	0
158	2656	8.323430932364	1
158	2656	8.323430932364	0
158	2839	9.246654063834	1
158	2839	9.246654063834	0
158	3026	10.169877195304	1
158	3026	10.169877195304	0
158	3275	11.093100326774	1
158	3275	11.093100326774	0
158	3463	12.016323458244	1
158	3463	12.016323458244	0
158	3712	12.939546589714	1
158	3712	12.939546589714	0
158	3900	13.862769721184	1
158	3900	13.862769721184	0
158	4149	14.785992852654	1
158	4149	14.785992852654	0
158	4308	15.709215984124	1
158	4308	15.709215984124	0
158	4557	16.632439115594	1
158	4557	16.632439115594	0
158	4712	17.555662247064	1
158	4712	17.555662247064	0
158	4960	18.478885378534	1
158	4960	18.478885378534	0
158	5148	19.402108510004	1
158	5148	19.402108510004	0
158	5397	20.325331641474	1
158	5397	20.325331641474	0
158	5585	21.248554772944	1
158	5585	21.248554772944	0
158	5834	22.171777904414	1
158	5834	22.171777904414	0
158	6022	23.095001035884	1
158	6022	23.095001035884	0
158	6242	24.018224167354	1
158	6242	24.018224167354	0
158	6430	24.941447298824	1
158	6430	24.941447298824	0
158	6646	25.864670430294	1
158	6646	25.864670430294	0
158	6833	26.787893561764	1
158	6833	26.787893561764	0
158	7174	27.711116693234	1
158	7174	27.711116693234	0
158	7300	28.634339824704	1
158	7300	28.634339824704	0
102	725	0.978271226393	65535
102	1464	3.016430527056	65535
102	1652	4.054589827719	65535
102	1901	5.092749128382	65535
102	2089	6.130908429045	65535
102	2371	7.169067729708	65535
102	2588	8.207227030371	65535
102	2837	9.245386331034	65535
102	3091	10.283545631697	65535
102	3337	11.32170493236	65535
102	3586	12.359864233023	65535
102	3807	13.398023533686	65535
102	4056	14.436182834349	65535
102	4273	15.474342135012	65535
102	4522	16.512501435675	65535
102	4710	17.550660736338	65535
102	4992	18.588820037001	65535
102	5242	19.626979337664	65535
102	5492	20.665138638327	65535
102	5770	21.70329793899	65535
102	5958	22.741457239653	65535
102	6207	23.779616540316	65535
102	6395	24.817775840979	65535
102	6644	25.855935141642	65535
102	6900	26.894094442305	65535
102	7235	27.932253742968	65535
102	7365	28.970413043631	65535
102	7491	30.008572344294	65535
102	7587	31.046731644957	65535
102	7738	31.28873254562	0
103	725	0.978271226393	8940
103	1464	3.016430527056	8940
103	1652	4.054589827719	8940
103	1901	5.092749128382	8940
103	2089	6.130908429045	8940
103	2371	7.169067729708	8940
103	2588	8.207227030371	8940
103	2837	9.245386331034	8940
103	3091	10.283545631697	8940
103	3337	11.32170493236	8940
103	3586	12.359864233023	8940
103	3807	13.398023533686	8940
103	4056	14.436182834349	8940
103	4273	15.474342135012	8940
103	4522	16.512501435675	8940
103	4710	17.550660736338	8940
103	4992	18.588820037001	8940
103	5242	19.626979337664	8940
103	5492	20.665138638327	8940
103	5770	21.70329793899	8940
103	5958	22.741457239653	8940
103	6207	23.779616540316	8940
103	6395	24.817775840979	8940
103	6644	25.855935141642	8940
103	6900	26.894094442305	8940
103	7235	27.932253742968	8940
103	7365	28.970413043631	8940
103	7491	30.008572344294	8940
103	7587	31.046731644957	8940
103	7738	31.28873254562	0
100	725	0.978271226393	3
100	811	0.978633626393	1
100	865	0.981877626393	1
100	1277	2.219983327056	1
100	1526	3.258142627719	1
100	1714	4.296301928382	1
100	1996	5.334461229045	1
100	2184	6.372620529708	1
100	2495	7.410779830371	1
100	2716	8.448939131034	1
100	2962	9.487098431697	1
100	3211	10.52525773236	1
100	3399	11.563417033023	1
100	3681	12.601576333686	1
100	3898	13.639735634349	1
100	4147	14.677894935012	1
100	4368	15.716054235675	1
100	4617	16.754213536338	1
100	4867	17.792372837001	1
100	5117	18.830532137664	1
100	5366	19.868691438327	1
100	5583	20.90685073899	1
100	5832	21.945010039653	1
100	6020	22.983169340316	1
100	6294	24.021328640979	1
100	6503	25.059487941642	1
100	6801	26.097647242305	1
100	7143	27.135806542968	1
100	7298	28.173965843631	1
100	7489	29.212125144294	1
100	7553	30.250284444957	1
100	7680	31.28844374562	1
100	7738	31.28873254562	0
101	811	0.978633626393	0.0003624
101	865	0.981877626393	0.0036064
101	1277	2.219983327056	0.2035528
101	1526	3.258142627719	0.2035528
101	1714	4.296301928382	0.2035528
101	1996	5.334461229045	0.2035528
101	2184	6.372620529708	0.2035528
101	2495	7.410779830371	0.2035528
101	2716	8.448939131034	0.2035528
101	2962	9.487098431697	0.2035528
101	3211	10.52525773236	0.2035528
101	3399	11.563417033023	0.2035528
101	3681	12.601576333686	0.2035528
101	3898	13.639735634349	0.2035528
101	4147	14.677894935012	0.2035528
101	4368	15.716054235675	0.2035528
101	4617	16.754213536338	0.2035528
101	4867	17.792372837001	0.2035528
101	5117	18.830532137664	0.2035528
101	5366	19.868691438327	0.2035528
101	5583	20.90685073899	0.2035528
101	5832	21.945010039653	0.2035528
101	6020	22.983169340316	0.2035528
101	6294	24.021328640979	0.2035528
101	6503	25.059487941642	0.2035528
101	6801	26.097647242305	0.2035528
101	7143	27.135806542968	0.2035528
101	7298	28.173965843631	0.2035528
101	7489	29.212125144294	0.2035528
101	7553	30.250284444957	0.2035528
101	7680	31.28844374562	0.2035528
101	7738	31.28873254562	0
104	729	0.978271226393	1000
104	1217	2.016430527056	1001
104	1466	3.054589827719	1002
104	1654	4.092749128382	1003
104	1903	5.130908429045	1004
104	2091	6.169067729708	1005
104	2373	7.207227030371	1006
104	2590	8.245386331034	1007
104	2872	9.283545631697	1008
104	3093	10.32170493236	1009
104	3339	11.359864233023	1010
104	3588	12.398023533686	1011
104	3809	13.436182834349	1012
104	4058	14.474342135012	1013
104	4275	15.512501435675	1014
104	4524	16.550660736338	1015
104	4745	17.588820037001	1016
104	4994	18.626979337664	1017
104	5244	19.665138638327	1018
104	5494	20.70329793899	1019
104	5772	21.741457239653	1020
104	5960	22.779616540316	1021
104	6209	23.817775840979	1022
104	6397	24.855935141642	1023
104	6679	25.894094442305	1024
104	6902	26.932253742968	1025
104	7237	27.970413043631	1026
104	7400	29.008572344294	1027
104	7493	30.046731644957	1028
104	7618	31.08489094562	1029
106	725	0.978271226393	1
108	715	0.978236826393	1
107	715	0.978236826393	1
109	811	0.978633626393	1
128	729	0.978271226393	1
128	729	0.978271226393	0
128	1217	2.016430527056	1
128	1217	2.016430527056	0
128	1466	3.054589827719	1
128	1466	3.054589827719	0
128	1654	4.092749128382	1
128	1654	4.092749128382	0
128	1903	5.130908429045	1
128	1903	5.130908429045	0
128	2091	6.169067729708	1
128	2091	6.169067729708	0
128	2373	7.207227030371	1
128	2373	7.207227030371	0
128	2590	8.245386331034	1
128	2590	8.245386331034	0
128	2872	9.283545631697	1
128	2872	9.283545631697	0
128	3093	10.32170493236	1
128	3093	10.32170493236	0
128	3339	11.359864233023	1
128	3339	11.359864233023	0
128	3588	12.398023533686	1
128	3588	12.398023533686	0
128	3809	13.436182834349	1
128	3809	13.436182834349	0
128	4058	14.474342135012	1
128	4058	14.474342135012	0
128	4275	15.512501435675	1
128	4275	15.512501435675	0
128	4524	16.550660736338	1
128	4524	16.550660736338	0
128	4745	17.588820037001	1
128	4745	17.588820037001	0
128	4994	18.626979337664	1
128	4994	18.626979337664	0
128	5244	19.665138638327	1
128	5244	19.665138638327	0
128	5494	20.70329793899	1
128	5494	20.70329793899	0
128	5772	21.741457239653	1
128	5772	21.741457239653	0
128	5960	22.779616540316	1
128	5960	22.779616540316	0
128	6209	23.817775840979	1
128	6209	23.817775840979	0
128	6397	24.855935141642	1
128	6397	24.855935141642	0
128	6679	25.894094442305	1
128	6679	25.894094442305	0
128	6902	26.932253742968	1
128	6902	26.932253742968	0
128	7237	27.970413043631	1
128	7237	27.970413043631	0
128	7400	29.008572344294	1
128	7400	29.008572344294	0
128	7493	30.046731644957	1
128	7493	30.046731644957	0
128	7618	31.08489094562	1
128	7618	31.08489094562	0
113	663	0.978060426393	65535
113	7768	31.28887054562	0
114	663	0.978060426393	8940
114	7768	31.28887054562	0
111	663	0.978060426393	3
111	778	0.978413226393	1
111	7768	31.28887054562	0
112	778	0.978413226393	0.0003528
112	7768	31.28887054562	0
116	834	0.981701226393	1000
116	1245	2.019806927056	1001
116	1494	3.057966227719	1002
116	1682	4.096125528382	1003
116	1931	5.134284829045	1004
116	2119	6.172444129708	1005
116	2401	7.210603430371	1006
116	2618	8.248762731034	1007
116	2900	9.286922031697	1008
116	3121	10.32508133236	1009
116	3367	11.363240633023	1010
116	3616	12.401399933686	1011
116	3837	13.439559234349	1012
116	4086	14.477718535012	1013
116	4303	15.515877835675	1014
116	4552	16.554037136338	1015
116	4773	17.592196437001	1016
116	5022	18.630355737664	1017
116	5285	19.668515038327	1018
116	5522	20.70667433899	1019
116	5800	21.744833639653	1020
116	5988	22.782992940316	1021
116	6237	23.821152240979	1022
116	6425	24.859311541642	1023
116	6707	25.897470842305	1024
116	6930	26.935630142968	1025
116	7265	27.973789443631	1026
116	7428	29.011948744294	1027
116	7521	30.050108044957	1028
116	7647	31.08826734562	1029
117	663	0.978060426393	1
119	783	0.978457226393	1
118	783	0.978457226393	1
120	778	0.978413226393	1
80	834	0.981701226393	64535
80	1249	2.219806927056	65535
80	1498	3.257966227719	65535
80	1686	4.296125528382	65535
80	1968	5.334284829045	65535
80	2156	6.372444129708	65535
80	2467	7.410603430371	65535
80	2688	8.448762731034	65535
80	2934	9.486922031697	65535
80	3183	10.52508133236	65535
80	3371	11.563240633023	65535
80	3653	12.601399933686	65535
80	3870	13.639559234349	65535
80	4119	14.677718535012	65535
80	4340	15.715877835675	65535
80	4589	16.754037136338	65535
80	4839	17.792196437001	65535
80	5089	18.830355737664	65535
80	5338	19.868515038327	65535
80	5555	20.90667433899	65535
80	5804	21.944833639653	65535
80	5992	22.982992940316	65535
80	6266	24.021152240979	65535
80	6475	25.059311541642	65535
80	6773	26.097470842305	65535
80	7115	27.135630142968	65535
80	7270	28.173789443631	65535
80	7461	29.211948744294	65535
80	7525	30.250108044957	65535
80	7652	31.28826734562	65535
53	87	0.788255139981	65535
53	8620	55.281799911839	0
54	87	0.788255139981	8940
54	8620	55.281799911839	0
51	87	0.788255139981	3
51	202	0.788607939981	1
51	7892	33.788607939981	1
51	8620	55.281799911839	0
52	202	0.788607939981	0.0003528
52	7892	33.788607939981	0.0003528
52	8620	55.281799911839	0
56	258	0.791895939981	1000
56	1340	2.670806394183	1001
56	1777	4.549770448385	1002
56	2243	6.428734502587	1003
56	2651	8.307698556789	1004
56	3087	10.186662610991	1005
56	3524	12.065626665193	1006
56	3961	13.944590719395	1007
56	4398	15.823554773597	1008
56	4806	17.702518827799	1009
56	5209	19.581482882001	1010
56	5675	21.460446936203	1011
56	6145	23.339410990405	1012
56	6582	25.218375044607	1013
56	7111	27.097339098809	1014
56	7395	28.976303153011	1015
56	7583	30.855267207213	1016
56	7801	32.734231261415	1017
56	7922	34.613195315617	1018
56	7985	36.492159369819	1019
56	8048	38.371123424021	1020
56	8111	40.250087478223	1021
56	8174	42.129051532425	1022
56	8237	44.008015586627	1023
56	8300	45.886979640829	1024
56	8363	47.765943695031	1025
56	8426	49.644907749233	1026
56	8489	51.523871803435	1027
56	8552	53.402835857637	1028
56	8616	55.281799911839	1029
57	87	0.788255139981	1
57	7835	33.788255139981	2
59	207	0.788651939981	1
58	207	0.788651939981	1
60	202	0.788607939981	1
60	7892	33.788607939981	2
38	258	0.791895939981	64535
38	1406	2.870806394183	65535
38	1843	4.749770448385	65535