file 45749 1346233643                                           
version 2
run General-0-20120824-21:07:43-5470
attr configname General
attr datetime 20120824-21:07:43
attr experiment General
attr inifile omnetpp.ini
attr iterationvars ""
attr iterationvars2 $repetition=0
attr measurement ""
attr network NClients
attr processid 5470
attr repetition 0
attr replication #0
attr resultdir results
attr runnumber 0
attr seedset 0
vector 53  NClients.srv.sctp  "Slow Start Threshold 6:192.168.0.6"  ETV
53	28587 53 87 8620 0.788255139981 55.281799911839 2 0 65535 65535 4294836225
vector 54  NClients.srv.sctp  "Congestion Window 6:192.168.0.6"  ETV
54	28640 52 87 8620 0.788255139981 55.281799911839 2 0 8940 8940 79923600
vector 57  NClients.srv.sctp  "HB Sent 6:192.168.0.6"  ETV
57	29747 49 87 7835 0.788255139981 33.788255139981 2 1 2 3 5
vector 51  NClients.srv.sctp  "RTO 6:192.168.0.6"  ETV
51	28692 99 87 8620 0.788255139981 55.281799911839 4 0 3 5 11
vector 36  NClients.srv.ppp[0].queue  "queue length"  ETV
36	45559 190 96 995 0.788255139981 1.860702212074 8 0 1 4 4
vector 14  NClients.r3.ppp[0].queue  "queue length"  ETV
14	44977 194 109 1007 0.788333639981 1.860746312074 8 0 1 4 4
vector 10  NClients.r2.ppp[0].queue  "queue length"  ETV
10	44783 194 121 1019 0.788377739981 1.860790412074 8 0 1 4 4
vector 4  NClients.r1.ppp[2].queue  "queue length"  ETV
4	44691 46 133 134 0.788421839981 0.788431439981 2 0 1 1 1
vector 47  NClients.cli[2].sctp  "HB ACK Sent 3:192.168.0.8"  ETV
47	35307 50 139 7863 0.788431539981 33.788431539981 2 1 2 3 5
vector 48  NClients.cli[2].sctp  "HB Received 3:192.168.0.8"  ETV
48	35257 50 139 7863 0.788431539981 33.788431539981 2 1 2 3 5
vector 42  NClients.cli[2].sctp  "Slow Start Threshold 3:192.168.0.8"  ETV
42	30758 890 149 8649 0.788465939981 55.281937911839 30 0 65535 1900515 124550250525
vector 43  NClients.cli[2].sctp  "Congestion Window 3:192.168.0.8"  ETV
43	31648 861 149 8649 0.788465939981 55.281937911839 30 0 8940 259260 2317784400
vector 46  NClients.cli[2].sctp  "HB Sent 3:192.168.0.8"  ETV
46	35233 24 149 149 0.788465939981 0.788465939981 1 1 1 1 1
vector 40  NClients.cli[2].sctp  "RTO 3:192.168.0.8"  ETV
40	32509 822 149 8649 0.788465939981 55.281937911839 32 0 3 33 39
vector 68  NClients.cli[2].sctp  "SendQueue of Association 3"  ETV
68	35381 1548 153 8587 0.788465939981 55.278423511839 60 0 1 30 30
vector 44  NClients.cli[2].sctp  "TSN Sent 3:192.168.0.8"  ETV
44	34369 864 153 8587 0.788465939981 55.278423511839 30 1000 1029 30435 30878555
vector 28  NClients.cli[2].ppp[0].queue  "queue length"  ETV
28	45367 96 156 167 0.788465939981 0.788519539981 4 0 2 4 6
vector 60  NClients.srv.sctp  "HB ACK Received 6:192.168.0.6"  ETV
60	29844 50 202 7892 0.788607939981 33.788607939981 2 1 2 3 5
vector 52  NClients.srv.sctp  "RTT 6:192.168.0.6"  ETV
52	28791 92 202 8620 0.788607939981 55.281799911839 3 0 0.0003528 0.0007056 2.4893568e-007
vector 58  NClients.srv.sctp  "HB ACK Sent 6:192.168.0.6"  ETV
58	29820 24 207 207 0.788651939981 0.788651939981 1 1 1 1 1
vector 59  NClients.srv.sctp  "HB Received 6:192.168.0.6"  ETV
59	29796 24 207 207 0.788651939981 0.788651939981 1 1 1 1 1
vector 49  NClients.cli[2].sctp  "HB ACK Received 3:192.168.0.8"  ETV
49	35357 24 235 235 0.788828339981 0.788828339981 1 1 1 1 1
vector 41  NClients.cli[2].sctp  "RTT 3:192.168.0.8"  ETV
41	33331 1038 235 8649 0.788828339981 55.281937911839 31 0 0.2035528 5.7034472 1.1601579243142
vector 56  NClients.srv.sctp  "TSN Received 6:192.168.0.6"  ETV
56	28883 864 258 8616 0.791895939981 55.281799911839 30 1000 1029 30435 30878555
vector 38  NClients.srv.sctp  "Advertised Receiver Window 5"  ETV
38	29894 864 258 8556 0.791895939981 53.602835857637 29 64535 65535 1899515 124420180525
vector 64  NClients.srv.sctpApp[0]  "App: Received Bytes of assoc 6"  ETV
64	36929 885 263 8619 0.791895939981 55.281799911839 30 1000 30000 465000 9455000000
vector 65  NClients.srv.sctpApp[0]  "App: EndToEndDelay of assoc 6"  ETV
65	40509 1012 263 8619 0.791895939981 55.281799911839 30 0.0033764 0.00343 0.1013456 0.00034236713184
vector 83  NClients.srv.sctp  "Slow Start Threshold 7:192.168.0.4"  ETV
83	11282 54 375 7079 0.796928504565 27.059370170572 2 0 65535 65535 4294836225
vector 84  NClients.srv.sctp  "Congestion Window 7:192.168.0.4"  ETV
84	11336 53 375 7079 0.796928504565 27.059370170572 2 0 8940 8940 79923600
vector 87  NClients.srv.sctp  "HB Sent 7:192.168.0.4"  ETV
87	12375 24 375 375 0.796928504565 0.796928504565 1 1 1 1 1
vector 81  NClients.srv.sctp  "RTO 7:192.168.0.4"  ETV
81	11389 74 375 7079 0.796928504565 27.059370170572 3 0 3 4 10
vector 0  NClients.r1.ppp[0].queue  "queue length"  ETV
0	44597 46 421 422 0.797095204565 0.797104804565 2 0 1 1 1
vector 77  NClients.cli[0].sctp  "HB ACK Sent 1:192.168.0.8"  ETV
77	9706 24 427 427 0.797104904565 0.797104904565 1 1 1 1 1
vector 78  NClients.cli[0].sctp  "HB Received 1:192.168.0.8"  ETV
78	9682 24 427 427 0.797104904565 0.797104904565 1 1 1 1 1
vector 72  NClients.cli[0].sctp  "Slow Start Threshold 1:192.168.0.8"  ETV
72	6795 54 437 7049 0.797139304565 27.059232170572 2 0 65535 65535 4294836225
vector 73  NClients.cli[0].sctp  "Congestion Window 1:192.168.0.8"  ETV
73	6849 53 437 7049 0.797139304565 27.059232170572 2 0 8940 8940 79923600
vector 76  NClients.cli[0].sctp  "HB Sent 1:192.168.0.8"  ETV
76	9658 24 437 437 0.797139304565 0.797139304565 1 1 1 1 1
vector 70  NClients.cli[0].sctp  "RTO 1:192.168.0.8"  ETV
70	6902 839 437 7049 0.797139304565 27.059232170572 33 0 3 34 40
vector 98  NClients.cli[0].sctp  "SendQueue of Association 1"  ETV
98	9754 1528 441 6866 0.797139304565 26.855390570572 60 0 1 30 30
vector 74  NClients.cli[0].sctp  "TSN Sent 1:192.168.0.8"  ETV
74	8804 854 441 6866 0.797139304565 26.855390570572 30 1000 1029 30435 30878555
vector 20  NClients.cli[0].ppp[0].queue  "queue length"  ETV
20	45171 96 444 455 0.797139304565 0.797192904565 4 0 2 4 6
vector 90  NClients.srv.sctp  "HB ACK Received 7:192.168.0.4"  ETV
90	12447 24 490 490 0.797281304565 0.797281304565 1 1 1 1 1
vector 82  NClients.srv.sctp  "RTT 7:192.168.0.4"  ETV
82	11463 58 490 7079 0.797281304565 27.059370170572 2 0 0.0003528 0.0003528 1.2446784e-007
vector 88  NClients.srv.sctp  "HB ACK Sent 7:192.168.0.4"  ETV
88	12423 24 495 495 0.797325304565 0.797325304565 1 1 1 1 1
vector 89  NClients.srv.sctp  "HB Received 7:192.168.0.4"  ETV
89	12399 24 495 495 0.797325304565 0.797325304565 1 1 1 1 1
vector 79  NClients.cli[0].sctp  "HB ACK Received 1:192.168.0.8"  ETV
79	9730 24 523 523 0.797501704565 0.797501704565 1 1 1 1 1
vector 71  NClients.cli[0].sctp  "RTT 1:192.168.0.8"  ETV
71	7741 1063 523 7049 0.797501704565 27.059232170572 32 0 0.2035528 5.907 1.2015916667021
vector 86  NClients.srv.sctp  "TSN Received 7:192.168.0.4"  ETV
86	11521 854 546 6895 0.800569304565 26.858766970572 30 1000 1029 30435 30878555
vector 50  NClients.srv.sctp  "Advertised Receiver Window 5"  ETV
50	12471 885 546 6963 0.800569304565 27.058766970572 30 64535 65535 1965050 128715016750
vector 94  NClients.srv.sctpApp[0]  "App: Received Bytes of assoc 7"  ETV
94	37814 875 551 6898 0.800569304565 26.858766970572 30 1000 30000 465000 9455000000
vector 95  NClients.srv.sctpApp[0]  "App: EndToEndDelay of assoc 7"  ETV
95	41521 1002 551 6898 0.800569304565 26.858766970572 30 0.0033764 0.00343 0.1013456 0.00034236713184
vector 113  NClients.srv.sctp  "Slow Start Threshold 8:192.168.0.7"  ETV
113	26469 55 663 7768 0.978060426393 31.28887054562 2 0 65535 65535 4294836225
vector 114  NClients.srv.sctp  "Congestion Window 8:192.168.0.7"  ETV
114	26524 54 663 7768 0.978060426393 31.28887054562 2 0 8940 8940 79923600
vector 117  NClients.srv.sctp  "HB Sent 8:192.168.0.7"  ETV
117	27600 25 663 663 0.978060426393 0.978060426393 1 1 1 1 1
vector 111  NClients.srv.sctp  "RTO 8:192.168.0.7"  ETV
111	26578 76 663 7768 0.978060426393 31.28887054562 3 0 3 4 10
vector 6  NClients.r1.ppp[3].queue  "queue length"  ETV
6	44737 46 709 710 0.978227126393 0.978236726393 2 0 1 1 1
vector 107  NClients.cli[3].sctp  "HB ACK Sent 4:192.168.0.8"  ETV
107	24825 25 715 715 0.978236826393 0.978236826393 1 1 1 1 1
vector 108  NClients.cli[3].sctp  "HB Received 4:192.168.0.8"  ETV
108	24800 25 715 715 0.978236826393 0.978236826393 1 1 1 1 1
vector 102  NClients.cli[3].sctp  "Slow Start Threshold 4:192.168.0.8"  ETV
102	20120 914 725 7738 0.978271226393 31.28873254562 30 0 65535 1900515 124550250525
vector 103  NClients.cli[3].sctp  "Congestion Window 4:192.168.0.8"  ETV
103	21034 885 725 7738 0.978271226393 31.28873254562 30 0 8940 259260 2317784400
vector 106  NClients.cli[3].sctp  "HB Sent 4:192.168.0.8"  ETV
106	24775 25 725 725 0.978271226393 0.978271226393 1 1 1 1 1
vector 100  NClients.cli[3].sctp  "RTO 4:192.168.0.8"  ETV
100	21919 873 725 7738 0.978271226393 31.28873254562 33 0 3 34 40
vector 128  NClients.cli[3].sctp  "SendQueue of Association 4"  ETV
128	24875 1594 729 7618 0.978271226393 31.08489094562 60 0 1 30 30
vector 104  NClients.cli[3].sctp  "TSN Sent 4:192.168.0.8"  ETV
104	23888 887 729 7618 0.978271226393 31.08489094562 30 1000 1029 30435 30878555
vector 32  NClients.cli[3].ppp[0].queue  "queue length"  ETV
32	45463 96 732 743 0.978271226393 0.978324826393 4 0 2 4 6
vector 120  NClients.srv.sctp  "HB ACK Received 8:192.168.0.7"  ETV
120	27675 25 778 778 0.978413226393 0.978413226393 1 1 1 1 1
vector 112  NClients.srv.sctp  "RTT 8:192.168.0.7"  ETV
112	26654 59 778 7768 0.978413226393 31.28887054562 2 0 0.0003528 0.0003528 1.2446784e-007
vector 118  NClients.srv.sctp  "HB ACK Sent 8:192.168.0.7"  ETV
118	27650 25 783 783 0.978457226393 0.978457226393 1 1 1 1 1
vector 119  NClients.srv.sctp  "HB Received 8:192.168.0.7"  ETV
119	27625 25 783 783 0.978457226393 0.978457226393 1 1 1 1 1
vector 109  NClients.cli[3].sctp  "HB ACK Received 4:192.168.0.8"  ETV
109	24850 25 811 811 0.978633626393 0.978633626393 1 1 1 1 1
vector 101  NClients.cli[3].sctp  "RTT 4:192.168.0.8"  ETV
101	22792 1096 811 7738 0.978633626393 31.28873254562 32 0 0.2035528 5.907 1.2015916667021
vector 116  NClients.srv.sctp  "TSN Received 8:192.168.0.7"  ETV
116	26713 887 834 7647 0.981701226393 31.08826734562 30 1000 1029 30435 30878555
vector 80  NClients.srv.sctp  "Advertised Receiver Window 5"  ETV
80	27700 887 834 7652 0.981701226393 31.28826734562 30 64535 65535 1965050 128715016750
vector 124  NClients.srv.sctpApp[0]  "App: Received Bytes of assoc 8"  ETV
124	38689 908 839 7650 0.981701226393 31.08826734562 30 1000 30000 465000 9455000000
vector 125  NClients.srv.sctpApp[0]  "App: EndToEndDelay of assoc 8"  ETV
125	42523 1035 839 7650 0.981701226393 31.08826734562 30 0.0033764 0.00343 0.1013456 0.00034236713184
vector 143  NClients.srv.sctp  "Slow Start Threshold 9:192.168.0.5"  ETV
143	13356 56 984 7333 1.860658212074 28.637716224704 2 0 65535 65535 4294836225
vector 144  NClients.srv.sctp  "Congestion Window 9:192.168.0.5"  ETV
144	13412 55 984 7333 1.860658212074 28.637716224704 2 0 8940 8940 79923600
vector 147  NClients.srv.sctp  "HB Sent 9:192.168.0.5"  ETV
147	14497 25 984 984 1.860658212074 1.860658212074 1 1 1 1 1
vector 141  NClients.srv.sctp  "RTO 9:192.168.0.5"  ETV
141	13467 78 984 7333 1.860658212074 28.637716224704 3 0 3 4 10
vector 2  NClients.r1.ppp[1].queue  "queue length"  ETV
2	44643 48 1030 1031 1.860824912074 1.860834512074 2 0 1 1 1
vector 137  NClients.cli[1].sctp  "HB ACK Sent 2:192.168.0.8"  ETV
137	18466 26 1036 1036 1.860834612074 1.860834612074 1 1 1 1 1
vector 138  NClients.cli[1].sctp  "HB Received 2:192.168.0.8"  ETV
138	18440 26 1036 1036 1.860834612074 1.860834612074 1 1 1 1 1
vector 132  NClients.cli[1].sctp  "Slow Start Threshold 2:192.168.0.8"  ETV
132	15490 57 1046 7362 1.860869012074 28.637854224704 2 0 65535 65535 4294836225
vector 133  NClients.cli[1].sctp  "Congestion Window 2:192.168.0.8"  ETV
133	15547 56 1046 7362 1.860869012074 28.637854224704 2 0 8940 8940 79923600
vector 136  NClients.cli[1].sctp  "HB Sent 2:192.168.0.8"  ETV
136	18414 26 1046 1046 1.860869012074 1.860869012074 1 1 1 1 1
vector 130  NClients.cli[1].sctp  "RTO 2:192.168.0.8"  ETV
130	15603 853 1046 7362 1.860869012074 28.637854224704 32 0 3 33 39
vector 158  NClients.cli[1].sctp  "SendQueue of Association 2"  ETV
158	18518 1602 1050 7300 1.860869012074 28.634339824704 60 0 1 30 30
vector 134  NClients.cli[1].sctp  "TSN Sent 2:192.168.0.8"  ETV
134	17523 891 1050 7300 1.860869012074 28.634339824704 30 1000 1029 30435 30878555
vector 24  NClients.cli[1].ppp[0].queue  "queue length"  ETV
24	45267 100 1053 1064 1.860869012074 1.860922612074 4 0 2 4 6
vector 150  NClients.srv.sctp  "HB ACK Received 9:192.168.0.5"  ETV
150	14574 26 1099 1099 1.861011012074 1.861011012074 1 1 1 1 1
vector 142  NClients.srv.sctp  "RTT 9:192.168.0.5"  ETV
142	13545 61 1099 7333 1.861011012074 28.637716224704 2 0 0.0003528 0.0003528 1.2446784e-007
vector 148  NClients.srv.sctp  "HB ACK Sent 9:192.168.0.5"  ETV
148	14548 26 1104 1104 1.861055012074 1.861055012074 1 1 1 1 1
vector 149  NClients.srv.sctp  "HB Received 9:192.168.0.5"  ETV
149	14522 26 1104 1104 1.861055012074 1.861055012074 1 1 1 1 1
vector 139  NClients.cli[1].sctp  "HB ACK Received 2:192.168.0.8"  ETV
139	18492 26 1132 1132 1.861231412074 1.861231412074 1 1 1 1 1
vector 131  NClients.cli[1].sctp  "RTT 2:192.168.0.8"  ETV
131	16456 1067 1132 7362 1.861231412074 28.637854224704 31 0 0.2035528 5.7034472 1.1601579243142
vector 146  NClients.srv.sctp  "TSN Received 9:192.168.0.5"  ETV
146	13606 891 1155 7329 1.864299012074 28.637716224704 30 1000 1029 30435 30878555
vector 110  NClients.srv.sctp  "Advertised Receiver Window 5"  ETV
110	14600 890 1155 7206 1.864299012074 27.914493093234 29 64535 65535 1899515 124420180525
vector 154  NClients.srv.sctpApp[0]  "App: Received Bytes of assoc 9"  ETV
154	39597 912 1160 7332 1.864299012074 28.637716224704 30 1000 30000 465000 9455000000
vector 155  NClients.srv.sctpApp[0]  "App: EndToEndDelay of assoc 9"  ETV
155	43558 1039 1160 7332 1.864299012074 28.637716224704 30 0.0033764 0.00343 0.1013456 0.00034236713184
