file 19259 1346403187                                           
version 2
run General-0-20120831-10:52:38-4364
attr configname General
attr datetime 20120831-10:52:38
attr experiment General
attr inifile omnetpp.ini
attr iterationvars ""
attr iterationvars2 $repetition=0
attr measurement ""
attr network Test
attr processid 4364
attr repetition 0
attr replication #0
attr resultdir results
attr runnumber 0
attr seedset 0

vector 2  Test.enb.eth[0].mac  framesSent  ETV
vector 4  Test.enb.eth[0].mac  bytesSent  ETV
vector 35  Test.mme.eth[0].mac  framesReceivedOK  ETV
vector 37  Test.mme.eth[0].mac  bytesReceivedOK  ETV
vector 41  Test.mme.eth[0].mac  framesPassedToHL  ETV
vector 34  Test.mme.eth[0].mac  framesSent  ETV
vector 36  Test.mme.eth[0].mac  bytesSent  ETV
vector 3  Test.enb.eth[0].mac  framesReceivedOK  ETV
vector 5  Test.enb.eth[0].mac  bytesReceivedOK  ETV
vector 9  Test.enb.eth[0].mac  framesPassedToHL  ETV
vector 199  Test.mme.sctp  "Slow Start Threshold 13:192.168.2.1"  ETV
vector 200  Test.mme.sctp  "Congestion Window 13:192.168.2.1"  ETV
vector 203  Test.mme.sctp  "HB Sent 13:192.168.2.1"  ETV
vector 197  Test.mme.sctp  "RTO 13:192.168.2.1"  ETV
vector 32  Test.mme.eth[0].queue  "queue length"  ETV
vector 190  Test.enb.sctp  "HB ACK Sent 5:192.168.2.2"  ETV
vector 191  Test.enb.sctp  "HB Received 5:192.168.2.2"  ETV
vector 185  Test.enb.sctp  "Slow Start Threshold 5:192.168.2.2"  ETV
vector 186  Test.enb.sctp  "Congestion Window 5:192.168.2.2"  ETV
vector 189  Test.enb.sctp  "HB Sent 5:192.168.2.2"  ETV
vector 183  Test.enb.sctp  "RTO 5:192.168.2.2"  ETV
vector 212  Test.enb.sctp  "SendQueue of Association 5"  ETV
vector 187  Test.enb.sctp  "TSN Sent 5:192.168.2.2"  ETV
vector 0  Test.enb.eth[0].queue  "queue length"  ETV
vector 206  Test.mme.sctp  "HB ACK Received 13:192.168.2.1"  ETV
vector 198  Test.mme.sctp  "RTT 13:192.168.2.1"  ETV
vector 204  Test.mme.sctp  "HB ACK Sent 13:192.168.2.1"  ETV
vector 205  Test.mme.sctp  "HB Received 13:192.168.2.1"  ETV
vector 192  Test.enb.sctp  "HB ACK Received 5:192.168.2.2"  ETV
vector 184  Test.enb.sctp  "RTT 5:192.168.2.2"  ETV
vector 202  Test.mme.sctp  "TSN Received 13:192.168.2.1"  ETV
vector 194  Test.mme.sctp  "Advertised Receiver Window 10"  ETV
vector 209  Test.mme.sctp  "SendQueue of Association 13"  ETV
vector 201  Test.mme.sctp  "TSN Sent 13:192.168.2.1"  ETV
vector 188  Test.enb.sctp  "TSN Received 5:192.168.2.2"  ETV
vector 182  Test.enb.sctp  "Advertised Receiver Window 5"  ETV
vector 48  Test.mme.eth[1].mac  framesSent  ETV
vector 50  Test.mme.eth[1].mac  bytesSent  ETV
vector 81  Test.hss.eth[0].mac  framesReceivedOK  ETV
vector 83  Test.hss.eth[0].mac  bytesReceivedOK  ETV
vector 87  Test.hss.eth[0].mac  framesPassedToHL  ETV
vector 80  Test.hss.eth[0].mac  framesSent  ETV
vector 82  Test.hss.eth[0].mac  bytesSent  ETV
vector 49  Test.mme.eth[1].mac  framesReceivedOK  ETV
vector 51  Test.mme.eth[1].mac  bytesReceivedOK  ETV
vector 55  Test.mme.eth[1].mac  framesPassedToHL  ETV
vector 227  Test.hss.sctp  "Slow Start Threshold 14:192.168.3.2"  ETV
vector 228  Test.hss.sctp  "Congestion Window 14:192.168.3.2"  ETV
vector 231  Test.hss.sctp  "HB Sent 14:192.168.3.2"  ETV
vector 225  Test.hss.sctp  "RTO 14:192.168.3.2"  ETV
vector 78  Test.hss.eth[0].queue  "queue length"  ETV
vector 221  Test.mme.sctp  "HB ACK Sent 8:192.168.3.1"  ETV
vector 222  Test.mme.sctp  "HB Received 8:192.168.3.1"  ETV
vector 216  Test.mme.sctp  "Slow Start Threshold 8:192.168.3.1"  ETV
vector 217  Test.mme.sctp  "Congestion Window 8:192.168.3.1"  ETV
vector 220  Test.mme.sctp  "HB Sent 8:192.168.3.1"  ETV
vector 214  Test.mme.sctp  "RTO 8:192.168.3.1"  ETV
vector 240  Test.mme.sctp  "SendQueue of Association 8"  ETV
vector 218  Test.mme.sctp  "TSN Sent 8:192.168.3.1"  ETV
vector 46  Test.mme.eth[1].queue  "queue length"  ETV
vector 234  Test.hss.sctp  "HB ACK Received 14:192.168.3.2"  ETV
vector 226  Test.hss.sctp  "RTT 14:192.168.3.2"  ETV
vector 232  Test.hss.sctp  "HB ACK Sent 14:192.168.3.2"  ETV
vector 233  Test.hss.sctp  "HB Received 14:192.168.3.2"  ETV
vector 223  Test.mme.sctp  "HB ACK Received 8:192.168.3.1"  ETV
vector 215  Test.mme.sctp  "RTT 8:192.168.3.1"  ETV
vector 230  Test.hss.sctp  "TSN Received 14:192.168.3.2"  ETV
vector 195  Test.hss.sctp  "Advertised Receiver Window 12"  ETV
vector 237  Test.hss.sctp  "SendQueue of Association 14"  ETV
vector 229  Test.hss.sctp  "TSN Sent 14:192.168.3.2"  ETV
vector 219  Test.mme.sctp  "TSN Received 8:192.168.3.1"  ETV
vector 213  Test.mme.sctp  "Advertised Receiver Window 8"  ETV
vector 16  Test.enb.eth[1].mac  framesSent  ETV
vector 18  Test.enb.eth[1].mac  bytesSent  ETV
vector 171  Test.sgw.eth[3].mac  framesReceivedOK  ETV
vector 173  Test.sgw.eth[3].mac  bytesReceivedOK  ETV
vector 177  Test.sgw.eth[3].mac  framesPassedToHL  ETV
vector 170  Test.sgw.eth[3].mac  framesSent  ETV
vector 172  Test.sgw.eth[3].mac  bytesSent  ETV
vector 17  Test.enb.eth[1].mac  framesReceivedOK  ETV
vector 19  Test.enb.eth[1].mac  bytesReceivedOK  ETV
vector 23  Test.enb.eth[1].mac  framesPassedToHL  ETV
vector 142  Test.sgw.eth[1].mac  framesSent  ETV
vector 144  Test.sgw.eth[1].mac  bytesSent  ETV
vector 63  Test.mme.eth[2].mac  framesReceivedOK  ETV
vector 65  Test.mme.eth[2].mac  bytesReceivedOK  ETV
vector 69  Test.mme.eth[2].mac  framesPassedToHL  ETV
vector 62  Test.mme.eth[2].mac  framesSent  ETV
vector 64  Test.mme.eth[2].mac  bytesSent  ETV
vector 143  Test.sgw.eth[1].mac  framesReceivedOK  ETV
vector 145  Test.sgw.eth[1].mac  bytesReceivedOK  ETV
vector 149  Test.sgw.eth[1].mac  framesPassedToHL  ETV
vector 112  Test.pgw.eth[1].mac  framesSent  ETV
vector 114  Test.pgw.eth[1].mac  bytesSent  ETV
vector 157  Test.sgw.eth[2].mac  framesReceivedOK  ETV
vector 159  Test.sgw.eth[2].mac  bytesReceivedOK  ETV
vector 163  Test.sgw.eth[2].mac  framesPassedToHL  ETV
vector 156  Test.sgw.eth[2].mac  framesSent  ETV
vector 158  Test.sgw.eth[2].mac  bytesSent  ETV
vector 113  Test.pgw.eth[1].mac  framesReceivedOK  ETV
vector 115  Test.pgw.eth[1].mac  bytesReceivedOK  ETV
vector 119  Test.pgw.eth[1].mac  framesPassedToHL  ETV
vector 98  Test.pgw.eth[0].mac  framesSent  ETV
vector 100  Test.pgw.eth[0].mac  bytesSent  ETV
vector 129  Test.sgw.eth[0].mac  framesReceivedOK  ETV
vector 131  Test.sgw.eth[0].mac  bytesReceivedOK  ETV
vector 135  Test.sgw.eth[0].mac  framesPassedToHL  ETV
vector 128  Test.sgw.eth[0].mac  framesSent  ETV
vector 130  Test.sgw.eth[0].mac  bytesSent  ETV
vector 99  Test.pgw.eth[0].mac  framesReceivedOK  ETV
vector 101  Test.pgw.eth[0].mac  bytesReceivedOK  ETV
vector 105  Test.pgw.eth[0].mac  framesPassedToHL  ETV
185	6707 75 151 1134 0.001060799993 30 3 0 65535 131070 8589672450
186	6782 73 151 1134 0.001060799993 30 3 0 4380 8760 38368800
183	6855 67 151 1134 0.001060799993 30 3 0 3 4 10
184	6922 54 195 1134 0.001074719991 30 2 0 1.3919998e-005 1.3919998e-005 1.9376634432e-010
187	6976 29 155 155 0.001060799993 0.001060799993 1 1000 1000 1000 1000000
188	7005 29 233 233 0.001093279989 0.001093279989 1 2000 2000 2000 4000000
189	7034 26 151 151 0.001060799993 0.001060799993 1 1 1 1 1
191	7060 26 135 135 0.001054079994 0.001054079994 1 1 1 1 1
190	7086 26 135 135 0.001054079994 0.001054079994 1 1 1 1 1
192	7112 26 195 195 0.001074719991 0.001074719991 1 1 1 1 1
182	7138 30 233 233 0.001093279989 0.001093279989 1 65523 65523 65523 4293263529
212	7168 26 155 155 0.001060799993 0.001060799993 1 0 0 0 0
199	7194 75 114 1134 0.001047199995 30 3 0 65535 131070 8589672450
200	7269 73 114 1134 0.001047199995 30 3 0 4380 8760 38368800
197	7342 93 114 1134 0.001047199995 30 4 0 3 5 11
198	7435 93 169 1134 0.001060959993 30 3 0 2.1599997e-005 3.5359995e-005 6.5589741536001e-010
201	7528 29 208 208 0.001078559991 0.001078559991 1 2000 2000 2000 4000000
202	7557 29 201 201 0.001078559991 0.001078559991 1 1000 1000 1000 1000000
203	7586 26 114 114 0.001047199995 0.001047199995 1 1 1 1 1
205	7612 26 179 179 0.001067839992 0.001067839992 1 1 1 1 1
204	7638 26 179 179 0.001067839992 0.001067839992 1 1 1 1 1
206	7664 26 169 169 0.001060959993 0.001060959993 1 1 1 1 1
194	7690 30 201 201 0.001078559991 0.001078559991 1 65489 65489 65489 4288809121
209	7720 26 208 208 0.001078559991 0.001078559991 1 0 0 0 0
216	7746 137 355 1134 1.000060799993 30 5 0 65535 262140 17179344900
217	7883 133 355 1134 1.000060799993 30 5 0 4380 17520 76737600
214	8016 146 355 1134 1.000060799993 30 6 0 3 7 13
215	8162 172 399 1134 1.000074719991 30 5 0 0.200019199998 0.400085919991 0.080015362058406
218	8334 89 359 943 1.000060799993 21.254979260996 3 1000 1002 3003 3006005
219	8423 89 437 939 1.000115039989 21.254979260996 3 2000 2002 6003 12012005
220	8512 26 355 355 1.000060799993 1.000060799993 1 1 1 1 1
222	8538 26 339 339 1.000054079994 1.000054079994 1 1 1 1 1
221	8564 26 339 339 1.000054079994 1.000054079994 1 1 1 1 1
223	8590 26 399 399 1.000074719991 1.000074719991 1 1 1 1 1
213	8616 154 437 961 1.000115039989 21.454979260996 5 65363 65535 327503 21451666669
240	8770 80 359 943 1.000060799993 21.254979260996 3 0 0 0 0
227	8850 136 318 1134 1.000047199995 30 5 0 65535 262140 17179344900
228	8986 132 318 1134 1.000047199995 30 5 0 4380 17520 76737600
225	9118 147 318 1134 1.000047199995 30 6 0 3 7 13
226	9265 173 373 1134 1.000060959993 30 5 0 0.200018239998 0.400084639991 0.080014594036492
229	9438 88 412 925 1.000087519991 21.254967900997 3 2000 2002 6003 12012005
230	9526 89 405 957 1.000087519991 21.254991580995 3 1000 1002 3003 3006005
231	9615 26 318 318 1.000047199995 1.000047199995 1 1 1 1 1
233	9641 26 383 383 1.000067839992 1.000067839992 1 1 1 1 1
232	9667 26 383 383 1.000067839992 1.000067839992 1 1 1 1 1
234	9693 26 373 373 1.000060959993 1.000060959993 1 1 1 1 1
195	9719 92 405 976 1.000087519991 21.454991580995 3 65375 65535 196445 12863563075
237	9811 79 412 925 1.000087519991 21.254967900997 3 0 0 0 0
0	9890 96 158 172 0.001060799993 0.001067839992 4 0 2 4 6
2	9986 166 57 245 0.001006719999 0.001100159988 7 1 7 28 140
3	10152 165 70 229 0.001013439998 0.001093279989 7 1 7 28 140
4	10317 179 57 245 0.001006719999 0.001100159988 7 64 584 2322 985084
5	10496 178 70 229 0.001013439998 0.001093279989 7 64 558 2366 966540
9	10674 165 70 229 0.001013439998 0.001093279989 7 1 7 28 140
16	10839 103 477 1009 9.090631898068 27.247701012105 4 1 4 10 30
17	10942 103 490 1026 9.090638618067 27.247707732104 4 1 4 10 30
18	11045 110 477 1009 9.090631898068 27.247701012105 4 64 256 640 122880
19	11155 110 490 1026 9.090638618067 27.247707732104 4 64 256 640 122880
23	11265 103 490 1026 9.090638618067 27.247707732104 4 1 4 10 30
32	11368 99 123 218 0.001047199995 0.00108543999 4 0 1 2 2
34	11467 172 69 228 0.001013439998 0.001093279989 7 1 7 28 140
35	11639 173 58 246 0.001006719999 0.001100159988 7 1 7 28 140
36	11812 185 69 228 0.001013439998 0.001093279989 7 64 558 2366 966540
37	11997 186 58 246 0.001006719999 0.001100159988 7 64 584 2322 985084
41	12183 173 58 246 0.001006719999 0.001100159988 7 1 7 28 140
46	12356 100 362 376 1.000060799993 1.000067839992 4 0 2 4 6
48	12456 281 261 970 1.000006719999 21.454986140995 11 1 11 66 506
49	12737 280 274 986 1.000013439998 21.454998460994 11 1 11 66 506
50	13017 302 261 970 1.000006719999 21.454986140995 11 64 1096 6398 5010852
51	13319 301 274 986 1.000013439998 21.454998460994 11 64 1094 6394 4950756
55	13620 280 274 986 1.000013439998 21.454998460994 11 1 11 66 506
62	13900 103 546 1077 9.571152612649 28.991923019372 4 1 4 10 30
63	14003 102 535 1094 9.57114589265 28.991929739371 4 1 4 10 30
64	14105 110 546 1077 9.571152612649 28.991923019372 4 64 256 640 122880
65	14215 109 535 1094 9.57114589265 28.991929739371 4 64 256 640 122880
69	14324 102 535 1094 9.57114589265 28.991929739371 4 1 4 10 30
78	14426 99 327 422 1.000047199995 1.00009439999 4 0 1 2 2
80	14525 280 273 985 1.000013439998 21.454998460994 11 1 11 66 506
81	14805 281 262 971 1.000006719999 21.454986140995 11 1 11 66 506
82	15086 301 273 985 1.000013439998 21.454998460994 11 64 1094 6394 4950756
83	15387 302 262 971 1.000006719999 21.454986140995 11 64 1096 6398 5010852
87	15689 281 262 971 1.000006719999 21.454986140995 11 1 11 66 506
98	15970 105 657 1126 10.115586406126 29.748775223009 4 1 4 10 30
99	16075 103 670 1111 10.115593126125 29.74876850301 4 1 4 10 30
100	16178 116 657 1126 10.115586406126 29.748775223009 4 64 256 640 122880
101	16294 114 670 1111 10.115593126125 29.74876850301 4 64 256 640 122880
105	16408 107 670 1111 10.115593126125 29.74876850301 4 1 4 10 30
112	16515 107 591 1058 9.919915405609 27.359556854443 4 1 4 10 30
113	16622 106 604 1043 9.919922125608 27.359550134444 4 1 4 10 30
114	16728 114 591 1058 9.919915405609 27.359556854443 4 64 256 640 122880
115	16842 113 604 1043 9.919922125608 27.359550134444 4 64 256 640 122880
119	16955 106 604 1043 9.919922125608 27.359550134444 4 1 4 10 30
128	17061 107 669 1110 10.115593126125 29.74876850301 4 1 4 10 30
129	17168 109 658 1127 10.115586406126 29.748775223009 4 1 4 10 30
130	17277 114 669 1110 10.115593126125 29.74876850301 4 64 256 640 122880
131	17391 116 658 1127 10.115586406126 29.748775223009 4 64 256 640 122880
135	17507 109 658 1127 10.115586406126 29.748775223009 4 1 4 10 30
142	17616 106 534 1093 9.57114589265 28.991929739371 4 1 4 10 30
143	17722 107 547 1078 9.571152612649 28.991923019372 4 1 4 10 30
144	17829 113 534 1093 9.57114589265 28.991929739371 4 64 256 640 122880
145	17942 114 547 1078 9.571152612649 28.991923019372 4 64 256 640 122880
149	18056 107 547 1078 9.571152612649 28.991923019372 4 1 4 10 30
156	18163 106 603 1042 9.919922125608 27.359550134444 4 1 4 10 30
157	18269 107 592 1059 9.919915405609 27.359556854443 4 1 4 10 30
158	18376 113 603 1042 9.919922125608 27.359550134444 4 64 256 640 122880
159	18489 114 592 1059 9.919915405609 27.359556854443 4 64 256 640 122880
163	18603 107 592 1059 9.919915405609 27.359556854443 4 1 4 10 30
170	18710 107 489 1025 9.090638618067 27.247707732104 4 1 4 10 30
171	18817 107 478 1010 9.090631898068 27.247701012105 4 1 4 10 30
172	18924 114 489 1025 9.090638618067 27.247707732104 4 64 256 640 122880
173	19038 114 478 1010 9.090631898068 27.247701012105 4 64 256 640 122880
177	19152 107 478 1010 9.090631898068 27.247701012105 4 1 4 10 30
