version 2
run General-0-20120831-10:52:38-4364
attr configname General
attr datetime 20120831-10:52:38
attr experiment General
attr inifile omnetpp.ini
attr iterationvars ""
attr iterationvars2 $repetition=0
attr measurement ""
attr network Test
attr processid 4364
attr repetition 0
attr replication #0
attr resultdir results
attr runnumber 0
attr seedset 0

vector 2  Test.enb.eth[0].mac  framesSent  ETV
vector 4  Test.enb.eth[0].mac  bytesSent  ETV
vector 35  Test.mme.eth[0].mac  framesReceivedOK  ETV
vector 37  Test.mme.eth[0].mac  bytesReceivedOK  ETV
vector 41  Test.mme.eth[0].mac  framesPassedToHL  ETV
vector 34  Test.mme.eth[0].mac  framesSent  ETV
vector 36  Test.mme.eth[0].mac  bytesSent  ETV
vector 3  Test.enb.eth[0].mac  framesReceivedOK  ETV
vector 5  Test.enb.eth[0].mac  bytesReceivedOK  ETV
vector 9  Test.enb.eth[0].mac  framesPassedToHL  ETV
vector 199  Test.mme.sctp  "Slow Start Threshold 13:192.168.2.1"  ETV
vector 200  Test.mme.sctp  "Congestion Window 13:192.168.2.1"  ETV
vector 203  Test.mme.sctp  "HB Sent 13:192.168.2.1"  ETV
vector 197  Test.mme.sctp  "RTO 13:192.168.2.1"  ETV
vector 32  Test.mme.eth[0].queue  "queue length"  ETV
vector 190  Test.enb.sctp  "HB ACK Sent 5:192.168.2.2"  ETV
vector 191  Test.enb.sctp  "HB Received 5:192.168.2.2"  ETV
vector 185  Test.enb.sctp  "Slow Start Threshold 5:192.168.2.2"  ETV
vector 186  Test.enb.sctp  "Congestion Window 5:192.168.2.2"  ETV
vector 189  Test.enb.sctp  "HB Sent 5:192.168.2.2"  ETV
vector 183  Test.enb.sctp  "RTO 5:192.168.2.2"  ETV
vector 212  Test.enb.sctp  "SendQueue of Association 5"  ETV
vector 187  Test.enb.sctp  "TSN Sent 5:192.168.2.2"  ETV
vector 0  Test.enb.eth[0].queue  "queue length"  ETV
vector 206  Test.mme.sctp  "HB ACK Received 13:192.168.2.1"  ETV
vector 198  Test.mme.sctp  "RTT 13:192.168.2.1"  ETV
vector 204  Test.mme.sctp  "HB ACK Sent 13:192.168.2.1"  ETV
vector 205  Test.mme.sctp  "HB Received 13:192.168.2.1"  ETV
vector 192  Test.enb.sctp  "HB ACK Received 5:192.168.2.2"  ETV
vector 184  Test.enb.sctp  "RTT 5:192.168.2.2"  ETV
vector 202  Test.mme.sctp  "TSN Received 13:192.168.2.1"  ETV
vector 194  Test.mme.sctp  "Advertised Receiver Window 10"  ETV
vector 209  Test.mme.sctp  "SendQueue of Association 13"  ETV
vector 201  Test.mme.sctp  "TSN Sent 13:192.168.2.1"  ETV
vector 188  Test.enb.sctp  "TSN Received 5:192.168.2.2"  ETV
vector 182  Test.enb.sctp  "Advertised Receiver Window 5"  ETV
vector 48  Test.mme.eth[1].mac  framesSent  ETV
vector 50  Test.mme.eth[1].mac  bytesSent  ETV
vector 81  Test.hss.eth[0].mac  framesReceivedOK  ETV
vector 83  Test.hss.eth[0].mac  bytesReceivedOK  ETV
vector 87  Test.hss.eth[0].mac  framesPassedToHL  ETV
vector 80  Test.hss.eth[0].mac  framesSent  ETV
vector 82  Test.hss.eth[0].mac  bytesSent  ETV
vector 49  Test.mme.eth[1].mac  framesReceivedOK  ETV
vector 51  Test.mme.eth[1].mac  bytesReceivedOK  ETV
vector 55  Test.mme.eth[1].mac  framesPassedToHL  ETV
vector 227  Test.hss.sctp  "Slow Start Threshold 14:192.168.3.2"  ETV
vector 228  Test.hss.sctp  "Congestion Window 14:192.168.3.2"  ETV
vector 231  Test.hss.sctp  "HB Sent 14:192.168.3.2"  ETV
vector 225  Test.hss.sctp  "RTO 14:192.168.3.2"  ETV
vector 78  Test.hss.eth[0].queue  "queue length"  ETV
vector 221  Test.mme.sctp  "HB ACK Sent 8:192.168.3.1"  ETV
vector 222  Test.mme.sctp  "HB Received 8:192.168.3.1"  ETV
vector 216  Test.mme.sctp  "Slow Start Threshold 8:192.168.3.1"  ETV
vector 217  Test.mme.sctp  "Congestion Window 8:192.168.3.1"  ETV
vector 220  Test.mme.sctp  "HB Sent 8:192.168.3.1"  ETV
vector 214  Test.mme.sctp  "RTO 8:192.168.3.1"  ETV
vector 240  Test.mme.sctp  "SendQueue of Association 8"  ETV
vector 218  Test.mme.sctp  "TSN Sent 8:192.168.3.1"  ETV
vector 46  Test.mme.eth[1].queue  "queue length"  ETV
vector 234  Test.hss.sctp  "HB ACK Received 14:192.168.3.2"  ETV
vector 226  Test.hss.sctp  "RTT 14:192.168.3.2"  ETV
vector 232  Test.hss.sctp  "HB ACK Sent 14:192.168.3.2"  ETV
vector 233  Test.hss.sctp  "HB Received 14:192.168.3.2"  ETV
vector 223  Test.mme.sctp  "HB ACK Received 8:192.168.3.1"  ETV
vector 215  Test.mme.sctp  "RTT 8:192.168.3.1"  ETV
vector 230  Test.hss.sctp  "TSN Received 14:192.168.3.2"  ETV
vector 195  Test.hss.sctp  "Advertised Receiver Window 12"  ETV
vector 237  Test.hss.sctp  "SendQueue of Association 14"  ETV
vector 229  Test.hss.sctp  "TSN Sent 14:192.168.3.2"  ETV
vector 219  Test.mme.sctp  "TSN Received 8:192.168.3.1"  ETV
vector 213  Test.mme.sctp  "Advertised Receiver Window 8"  ETV
vector 16  Test.enb.eth[1].mac  framesSent  ETV
vector 18  Test.enb.eth[1].mac  bytesSent  ETV
vector 171  Test.sgw.eth[3].mac  framesReceivedOK  ETV
vector 173  Test.sgw.eth[3].mac  bytesReceivedOK  ETV
vector 177  Test.sgw.eth[3].mac  framesPassedToHL  ETV
vector 170  Test.sgw.eth[3].mac  framesSent  ETV
vector 172  Test.sgw.eth[3].mac  bytesSent  ETV
vector 17  Test.enb.eth[1].mac  framesReceivedOK  ETV
vector 19  Test.enb.eth[1].mac  bytesReceivedOK  ETV
vector 23  Test.enb.eth[1].mac  framesPassedToHL  ETV
vector 142  Test.sgw.eth[1].mac  framesSent  ETV
vector 144  Test.sgw.eth[1].mac  bytesSent  ETV
vector 63  Test.mme.eth[2].mac  framesReceivedOK  ETV
vector 65  Test.mme.eth[2].mac  bytesReceivedOK  ETV
vector 69  Test.mme.eth[2].mac  framesPassedToHL  ETV
vector 62  Test.mme.eth[2].mac  framesSent  ETV
vector 64  Test.mme.eth[2].mac  bytesSent  ETV
vector 143  Test.sgw.eth[1].mac  framesReceivedOK  ETV
vector 145  Test.sgw.eth[1].mac  bytesReceivedOK  ETV
vector 149  Test.sgw.eth[1].mac  framesPassedToHL  ETV
vector 112  Test.pgw.eth[1].mac  framesSent  ETV
vector 114  Test.pgw.eth[1].mac  bytesSent  ETV
vector 157  Test.sgw.eth[2].mac  framesReceivedOK  ETV
vector 159  Test.sgw.eth[2].mac  bytesReceivedOK  ETV
vector 163  Test.sgw.eth[2].mac  framesPassedToHL  ETV
vector 156  Test.sgw.eth[2].mac  framesSent  ETV
vector 158  Test.sgw.eth[2].mac  bytesSent  ETV
vector 113  Test.pgw.eth[1].mac  framesReceivedOK  ETV
vector 115  Test.pgw.eth[1].mac  bytesReceivedOK  ETV
vector 119  Test.pgw.eth[1].mac  framesPassedToHL  ETV
vector 98  Test.pgw.eth[0].mac  framesSent  ETV
vector 100  Test.pgw.eth[0].mac  bytesSent  ETV
vector 129  Test.sgw.eth[0].mac  framesReceivedOK  ETV
vector 131  Test.sgw.eth[0].mac  bytesReceivedOK  ETV
vector 135  Test.sgw.eth[0].mac  framesPassedToHL  ETV
vector 128  Test.sgw.eth[0].mac  framesSent  ETV
vector 130  Test.sgw.eth[0].mac  bytesSent  ETV
vector 99  Test.pgw.eth[0].mac  framesReceivedOK  ETV
vector 101  Test.pgw.eth[0].mac  bytesReceivedOK  ETV
vector 105  Test.pgw.eth[0].mac  framesPassedToHL  ETV
185	151	0.001060799993	65535
185	459	3.001060799993	65535
185	1134	30	0
186	151	0.001060799993	4380
186	459	3.001060799993	4380
186	1134	30	0
183	151	0.001060799993	3
183	195	0.001074719991	1
183	1134	30	0
184	195	0.001074719991	1.3919998e-005
184	1134	30	0
187	155	0.001060799993	1000
188	233	0.001093279989	2000
189	151	0.001060799993	1
191	135	0.001054079994	1
190	135	0.001054079994	1
192	195	0.001074719991	1
182	233	0.001093279989	65523
212	155	0.001060799993	0
199	114	0.001047199995	65535
199	455	1.001078559991	65535
199	1134	30	0
200	114	0.001047199995	4380
200	455	1.001078559991	4380
200	1134	30	0
197	114	0.001047199995	3
197	169	0.001060959993	1
197	250	0.001100159988	1
197	1134	30	0
198	169	0.001060959993	1.3759998e-005
198	250	0.001100159988	2.1599997e-005
198	1134	30	0
201	208	0.001078559991	2000
202	201	0.001078559991	1000
203	114	0.001047199995	1
205	179	0.001067839992	1
204	179	0.001067839992	1
206	169	0.001060959993	1
194	201	0.001078559991	65489
209	208	0.001078559991	0
216	355	1.000060799993	65535
216	462	4.000060799993	65535
216	774	13.196733135339	65535
216	994	22.254979260996	65535
216	1134	30	0
217	355	1.000060799993	4380
217	462	4.000060799993	4380
217	774	13.196733135339	4380
217	994	22.254979260996	4380
217	1134	30	0
214	355	1.000060799993	3
214	399	1.000074719991	1
214	429	1.00009439999	1
214	772	12.396752335337	1
214	990	21.454998460994	1
214	1134	30	0
215	399	1.000074719991	1.3919998e-005
215	429	1.00009439999	3.3599997e-005
215	772	12.396752335337	0.200019199998
215	990	21.454998460994	0.200019199998
215	1134	30	0
218	359	1.000060799993	1000
218	725	12.196733135339	1001
218	943	21.254979260996	1002
219	437	1.000115039989	2000
219	721	12.196733135339	2001
219	939	21.254979260996	2002
220	355	1.000060799993	1
222	339	1.000054079994	1
221	339	1.000054079994	1
223	399	1.000074719991	1
213	437	1.000115039989	65363
213	725	12.196733135339	65535
213	743	12.396733135339	65535
213	943	21.254979260996	65535
213	961	21.454979260996	65535
240	359	1.000060799993	0
240	725	12.196733135339	0
240	943	21.254979260996	0
227	318	1.000047199995	65535
227	458	2.000087519991	65535
227	773	13.19672177534	65535
227	993	22.254967900997	65535
227	1134	30	0
228	318	1.000047199995	4380
228	458	2.000087519991	4380
228	773	13.19672177534	4380
228	993	22.254967900997	4380
228	1134	30	0
225	318	1.000047199995	3
225	373	1.000060959993	1
225	454	1.000121919988	1
225	757	12.396740015338	1
225	975	21.454986140995	1
225	1134	30	0
226	373	1.000060959993	1.3759998e-005
226	454	1.000121919988	3.4399997e-005
226	757	12.396740015338	0.200018239998
226	975	21.454986140995	0.200018239998
226	1134	30	0
229	412	1.000087519991	2000
229	707	12.19672177534	2001
229	925	21.254967900997	2002
230	405	1.000087519991	1000
230	739	12.196745455338	1001
230	957	21.254991580995	1002
231	318	1.000047199995	1
233	383	1.000067839992	1
232	383	1.000067839992	1
234	373	1.000060959993	1
195	405	1.000087519991	65375
195	758	12.396745455338	65535
195	976	21.454991580995	65535
237	412	1.000087519991	0
237	707	12.19672177534	0
237	925	21.254967900997	0
0	158	0.001060799993	1
0	161	0.001060799993	2
0	162	0.001060959993	1
0	172	0.001067839992	0
2	57	0.001006719999	1
2	81	0.001021279997	2
2	109	0.001047199995	3
2	162	0.001060959993	4
2	172	0.001067839992	5
2	196	0.001078559991	6
2	245	0.001100159988	7
3	70	0.001013439998	1
3	96	0.001035199996	2
3	129	0.001054079994	3
3	147	0.001060799993	4
3	191	0.001074719991	5
3	219	0.00108543999	6
3	229	0.001093279989	7
4	57	0.001006719999	64
4	81	0.001021279997	142
4	109	0.001047199995	272
4	162	0.001060959993	338
4	172	0.001067839992	404
4	196	0.001078559991	518
4	245	0.001100159988	584
5	70	0.001013439998	64
5	96	0.001035199996	218
5	129	0.001054079994	284
5	147	0.001060799993	348
5	191	0.001074719991	414
5	219	0.00108543999	480
5	229	0.001093279989	558
9	70	0.001013439998	1
9	96	0.001035199996	2
9	129	0.001054079994	3
9	147	0.001060799993	4
9	191	0.001074719991	5
9	219	0.00108543999	6
9	229	0.001093279989	7
16	477	9.090631898068	1
16	501	9.090645338066	2
16	857	19.172541820019	3
16	1009	27.247701012105	4
17	490	9.090638618067	1
17	518	9.090652058065	2
17	874	19.172548540018	3
17	1026	27.247707732104	4
18	477	9.090631898068	64
18	501	9.090645338066	128
18	857	19.172541820019	192
18	1009	27.247701012105	256
19	490	9.090638618067	64
19	518	9.090652058065	128
19	874	19.172548540018	192
19	1026	27.247707732104	256
23	490	9.090638618067	1
23	518	9.090652058065	2
23	874	19.172548540018	3
23	1026	27.247707732104	4
32	123	0.001047199995	1
32	128	0.001054079994	0
32	215	0.001078559991	1
32	218	0.00108543999	0
34	69	0.001013439998	1
34	95	0.001035199996	2
34	128	0.001054079994	3
34	146	0.001060799993	4
34	190	0.001074719991	5
34	218	0.00108543999	6
34	228	0.001093279989	7
35	58	0.001006719999	1
35	82	0.001021279997	2
35	110	0.001047199995	3
35	163	0.001060959993	4
35	173	0.001067839992	5
35	197	0.001078559991	6
35	246	0.001100159988	7
36	69	0.001013439998	64
36	95	0.001035199996	218
36	128	0.001054079994	284
36	146	0.001060799993	348
36	190	0.001074719991	414
36	218	0.00108543999	480
36	228	0.001093279989	558
37	58	0.001006719999	64
37	82	0.001021279997	142
37	110	0.001047199995	272
37	163	0.001060959993	338
37	173	0.001067839992	404
37	197	0.001078559991	518
37	246	0.001100159988	584
41	58	0.001006719999	1
41	82	0.001021279997	2
41	110	0.001047199995	3
41	163	0.001060959993	4
41	173	0.001067839992	5
41	197	0.001078559991	6
41	246	0.001100159988	7
46	362	1.000060799993	1
46	365	1.000060799993	2
46	366	1.000060959993	1
46	376	1.000067839992	0
48	261	1.000006719999	1
48	285	1.000021279997	2
48	313	1.000047199995	3
48	366	1.000060959993	4
48	376	1.000067839992	5
48	400	1.000087519991	6
48	449	1.000121919988	7
48	734	12.196745455338	8
48	752	12.396740015338	9
48	952	21.254991580995	10
48	970	21.454986140995	11
49	274	1.000013439998	1
49	300	1.000035199996	2
49	333	1.000054079994	3
49	351	1.000060799993	4
49	395	1.000074719991	5
49	423	1.00009439999	6
49	433	1.000115039989	7
49	717	12.196733135339	8
49	768	12.396752335337	9
49	935	21.254979260996	10
49	986	21.454998460994	11
50	261	1.000006719999	64
50	285	1.000021279997	142
50	313	1.000047199995	272
50	366	1.000060959993	338
50	376	1.000067839992	404
50	400	1.000087519991	630
50	449	1.000121919988	696
50	734	12.196745455338	830
50	752	12.396740015338	896
50	952	21.254991580995	1030
50	970	21.454986140995	1096
51	274	1.000013439998	64
51	300	1.000035199996	218
51	333	1.000054079994	284
51	351	1.000060799993	348
51	395	1.000074719991	414
51	423	1.00009439999	480
51	433	1.000115039989	718
51	717	12.196733135339	840
51	768	12.396752335337	906
51	935	21.254979260996	1028
51	986	21.454998460994	1094
55	274	1.000013439998	1
55	300	1.000035199996	2
55	333	1.000054079994	3
55	351	1.000060799993	4
55	395	1.000074719991	5
55	423	1.00009439999	6
55	433	1.000115039989	7
55	717	12.196733135339	8
55	768	12.396752335337	9
55	935	21.254979260996	10
55	986	21.454998460994	11
62	546	9.571152612649	1
62	574	9.571166052647	2
62	807	18.044250307687	3
62	1077	28.991923019372	4
63	535	9.57114589265	1
63	559	9.571159332648	2
63	792	18.044243587688	3
63	1094	28.991929739371	4
64	546	9.571152612649	64
64	574	9.571166052647	128
64	807	18.044250307687	192
64	1077	28.991923019372	256
65	535	9.57114589265	64
65	559	9.571159332648	128
65	792	18.044243587688	192
65	1094	28.991929739371	256
69	535	9.57114589265	1
69	559	9.571159332648	2
69	792	18.044243587688	3
69	1094	28.991929739371	4
78	327	1.000047199995	1
78	332	1.000054079994	0
78	419	1.000087519991	1
78	422	1.00009439999	0
80	273	1.000013439998	1
80	299	1.000035199996	2
80	332	1.000054079994	3
80	350	1.000060799993	4
80	394	1.000074719991	5
80	422	1.00009439999	6
80	432	1.000115039989	7
80	716	12.196733135339	8
80	767	12.396752335337	9
80	934	21.254979260996	10
80	985	21.454998460994	11
81	262	1.000006719999	1
81	286	1.000021279997	2
81	314	1.000047199995	3
81	367	1.000060959993	4
81	377	1.000067839992	5
81	401	1.000087519991	6
81	450	1.000121919988	7
81	735	12.196745455338	8
81	753	12.396740015338	9
81	953	21.254991580995	10
81	971	21.454986140995	11
82	273	1.000013439998	64
82	299	1.000035199996	218
82	332	1.000054079994	284
82	350	1.000060799993	348
82	394	1.000074719991	414
82	422	1.00009439999	480
82	432	1.000115039989	718
82	716	12.196733135339	840
82	767	12.396752335337	906
82	934	21.254979260996	1028
82	985	21.454998460994	1094
83	262	1.000006719999	64
83	286	1.000021279997	142
83	314	1.000047199995	272
83	367	1.000060959993	338
83	377	1.000067839992	404
83	401	1.000087519991	630
83	450	1.000121919988	696
83	735	12.196745455338	830
83	753	12.396740015338	896
83	953	21.254991580995	1030
83	971	21.454986140995	1096
87	262	1.000006719999	1
87	286	1.000021279997	2
87	314	1.000047199995	3
87	367	1.000060959993	4
87	377	1.000067839992	5
87	401	1.000087519991	6
87	450	1.000121919988	7
87	735	12.196745455338	8
87	753	12.396740015338	9
87	953	21.254991580995	10
87	971	21.454986140995	11
98	657	10.115586406126	1
98	681	10.115599846124	2
98	917	21.150075767859	3
98	1126	29.748775223009	4
99	670	10.115593126125	1
99	698	10.115606566123	2
99	902	21.15006904786	3
99	1111	29.74876850301	4
100	657	10.115586406126	64
100	681	10.115599846124	128
100	917	21.150075767859	192
100	1126	29.748775223009	256
101	670	10.115593126125	64
101	698	10.115606566123	128
101	902	21.15006904786	192
101	1111	29.74876850301	256
105	670	10.115593126125	1
105	698	10.115606566123	2
105	902	21.15006904786	3
105	1111	29.74876850301	4
112	591	9.919915405609	1
112	615	9.919928845607	2
112	840	18.493355427609	3
112	1058	27.359556854443	4
113	604	9.919922125608	1
113	632	9.919935565606	2
113	825	18.49334870761	3
113	1043	27.359550134444	4
114	591	9.919915405609	64
114	615	9.919928845607	128
114	840	18.493355427609	192
114	1058	27.359556854443	256
115	604	9.919922125608	64
115	632	9.919935565606	128
115	825	18.49334870761	192
115	1043	27.359550134444	256
119	604	9.919922125608	1
119	632	9.919935565606	2
119	825	18.49334870761	3
119	1043	27.359550134444	4
128	669	10.115593126125	1
128	697	10.115606566123	2
128	901	21.15006904786	3
128	1110	29.74876850301	4
129	658	10.115586406126	1
129	682	10.115599846124	2
129	918	21.150075767859	3
129	1127	29.748775223009	4
130	669	10.115593126125	64
130	697	10.115606566123	128
130	901	21.15006904786	192
130	1110	29.74876850301	256
131	658	10.115586406126	64
131	682	10.115599846124	128
131	918	21.150075767859	192
131	1127	29.748775223009	256
135	658	10.115586406126	1
135	682	10.115599846124	2
135	918	21.150075767859	3
135	1127	29.748775223009	4
142	534	9.57114589265	1
142	558	9.571159332648	2
142	791	18.044243587688	3
142	1093	28.991929739371	4
143	547	9.571152612649	1
143	575	9.571166052647	2
143	808	18.044250307687	3
143	1078	28.991923019372	4
144	534	9.57114589265	64
144	558	9.571159332648	128
144	791	18.044243587688	192
144	1093	28.991929739371	256
145	547	9.571152612649	64
145	575	9.571166052647	128
145	808	18.044250307687	192
145	1078	28.991923019372	256
149	547	9.571152612649	1
149	575	9.571166052647	2
149	808	18.044250307687	3
149	1078	28.991923019372	4
156	603	9.919922125608	1
156	631	9.919935565606	2
156	824	18.49334870761	3
156	1042	27.359550134444	4
157	592	9.919915405609	1
157	616	9.919928845607	2
157	841	18.493355427609	3
157	1059	27.359556854443	4
158	603	9.919922125608	64
158	631	9.919935565606	128
158	824	18.49334870761	192
158	1042	27.359550134444	256
159	592	9.919915405609	64
159	616	9.919928845607	128
159	841	18.493355427609	192
159	1059	27.359556854443	256
163	592	9.919915405609	1
163	616	9.919928845607	2
163	841	18.493355427609	3
163	1059	27.359556854443	4
170	489	9.090638618067	1
170	517	9.090652058065	2
170	873	19.172548540018	3
170	1025	27.247707732104	4
171	478	9.090631898068	1
171	502	9.090645338066	2
171	858	19.172541820019	3
171	1010	27.247701012105	4
172	489	9.090638618067	64
172	517	9.090652058065	128
172	873	19.172548540018	192
172	1025	27.247707732104	256
173	478	9.090631898068	64
173	502	9.090645338066	128
173	858	19.172541820019	192
173	1010	27.247701012105	256
177	478	9.090631898068	1
177	502	9.090645338066	2
177	858	19.172541820019	3
177	1010	27.247701012105	4
