file 24048 1345836630                                           
version 2
run General-0-20120824-22:30:28-9668
attr configname General
attr datetime 20120824-22:30:28
attr experiment General
attr inifile omnetpp.ini
attr iterationvars ""
attr iterationvars2 $repetition=0
attr measurement ""
attr network Test
attr processid 9668
attr repetition 0
attr replication #0
attr resultdir results
attr runnumber 0
attr seedset 0

vector 2  Test.enb.eth[0].mac  framesSent  ETV
vector 4  Test.enb.eth[0].mac  bytesSent  ETV
vector 35  Test.mme.eth[0].mac  framesReceivedOK  ETV
vector 37  Test.mme.eth[0].mac  bytesReceivedOK  ETV
vector 41  Test.mme.eth[0].mac  framesPassedToHL  ETV
vector 34  Test.mme.eth[0].mac  framesSent  ETV
vector 36  Test.mme.eth[0].mac  bytesSent  ETV
vector 3  Test.enb.eth[0].mac  framesReceivedOK  ETV
vector 5  Test.enb.eth[0].mac  bytesReceivedOK  ETV
vector 9  Test.enb.eth[0].mac  framesPassedToHL  ETV
vector 199  Test.mme.sctp  "Slow Start Threshold 13:192.168.2.1"  ETV
vector 200  Test.mme.sctp  "Congestion Window 13:192.168.2.1"  ETV
vector 203  Test.mme.sctp  "HB Sent 13:192.168.2.1"  ETV
vector 197  Test.mme.sctp  "RTO 13:192.168.2.1"  ETV
vector 32  Test.mme.eth[0].queue  "queue length"  ETV
vector 190  Test.enb.sctp  "HB ACK Sent 5:192.168.2.2"  ETV
vector 191  Test.enb.sctp  "HB Received 5:192.168.2.2"  ETV
vector 185  Test.enb.sctp  "Slow Start Threshold 5:192.168.2.2"  ETV
vector 186  Test.enb.sctp  "Congestion Window 5:192.168.2.2"  ETV
vector 189  Test.enb.sctp  "HB Sent 5:192.168.2.2"  ETV
vector 183  Test.enb.sctp  "RTO 5:192.168.2.2"  ETV
vector 212  Test.enb.sctp  "SendQueue of Association 5"  ETV
vector 187  Test.enb.sctp  "TSN Sent 5:192.168.2.2"  ETV
vector 0  Test.enb.eth[0].queue  "queue length"  ETV
vector 206  Test.mme.sctp  "HB ACK Received 13:192.168.2.1"  ETV
vector 198  Test.mme.sctp  "RTT 13:192.168.2.1"  ETV
vector 204  Test.mme.sctp  "HB ACK Sent 13:192.168.2.1"  ETV
vector 205  Test.mme.sctp  "HB Received 13:192.168.2.1"  ETV
vector 192  Test.enb.sctp  "HB ACK Received 5:192.168.2.2"  ETV
vector 184  Test.enb.sctp  "RTT 5:192.168.2.2"  ETV
vector 202  Test.mme.sctp  "TSN Received 13:192.168.2.1"  ETV
vector 194  Test.mme.sctp  "Advertised Receiver Window 10"  ETV
vector 209  Test.mme.sctp  "SendQueue of Association 13"  ETV
vector 201  Test.mme.sctp  "TSN Sent 13:192.168.2.1"  ETV
vector 188  Test.enb.sctp  "TSN Received 5:192.168.2.2"  ETV
vector 182  Test.enb.sctp  "Advertised Receiver Window 5"  ETV
vector 48  Test.mme.eth[1].mac  framesSent  ETV
vector 50  Test.mme.eth[1].mac  bytesSent  ETV
vector 81  Test.hss.eth[0].mac  framesReceivedOK  ETV
vector 83  Test.hss.eth[0].mac  bytesReceivedOK  ETV
vector 87  Test.hss.eth[0].mac  framesPassedToHL  ETV
vector 80  Test.hss.eth[0].mac  framesSent  ETV
vector 82  Test.hss.eth[0].mac  bytesSent  ETV
vector 49  Test.mme.eth[1].mac  framesReceivedOK  ETV
vector 51  Test.mme.eth[1].mac  bytesReceivedOK  ETV
vector 55  Test.mme.eth[1].mac  framesPassedToHL  ETV
vector 227  Test.hss.sctp  "Slow Start Threshold 14:192.168.3.2"  ETV
vector 228  Test.hss.sctp  "Congestion Window 14:192.168.3.2"  ETV
vector 231  Test.hss.sctp  "HB Sent 14:192.168.3.2"  ETV
vector 225  Test.hss.sctp  "RTO 14:192.168.3.2"  ETV
vector 78  Test.hss.eth[0].queue  "queue length"  ETV
vector 221  Test.mme.sctp  "HB ACK Sent 8:192.168.3.1"  ETV
vector 222  Test.mme.sctp  "HB Received 8:192.168.3.1"  ETV
vector 216  Test.mme.sctp  "Slow Start Threshold 8:192.168.3.1"  ETV
vector 217  Test.mme.sctp  "Congestion Window 8:192.168.3.1"  ETV
vector 220  Test.mme.sctp  "HB Sent 8:192.168.3.1"  ETV
vector 214  Test.mme.sctp  "RTO 8:192.168.3.1"  ETV
vector 240  Test.mme.sctp  "SendQueue of Association 8"  ETV
vector 218  Test.mme.sctp  "TSN Sent 8:192.168.3.1"  ETV
vector 46  Test.mme.eth[1].queue  "queue length"  ETV
vector 234  Test.hss.sctp  "HB ACK Received 14:192.168.3.2"  ETV
vector 226  Test.hss.sctp  "RTT 14:192.168.3.2"  ETV
vector 232  Test.hss.sctp  "HB ACK Sent 14:192.168.3.2"  ETV
vector 233  Test.hss.sctp  "HB Received 14:192.168.3.2"  ETV
vector 223  Test.mme.sctp  "HB ACK Received 8:192.168.3.1"  ETV
vector 215  Test.mme.sctp  "RTT 8:192.168.3.1"  ETV
vector 230  Test.hss.sctp  "TSN Received 14:192.168.3.2"  ETV
vector 195  Test.hss.sctp  "Advertised Receiver Window 12"  ETV
vector 237  Test.hss.sctp  "SendQueue of Association 14"  ETV
vector 229  Test.hss.sctp  "TSN Sent 14:192.168.3.2"  ETV
vector 219  Test.mme.sctp  "TSN Received 8:192.168.3.1"  ETV
vector 213  Test.mme.sctp  "Advertised Receiver Window 8"  ETV
vector 62  Test.mme.eth[2].mac  framesSent  ETV
vector 64  Test.mme.eth[2].mac  bytesSent  ETV
vector 143  Test.sgw.eth[1].mac  framesReceivedOK  ETV
vector 145  Test.sgw.eth[1].mac  bytesReceivedOK  ETV
vector 149  Test.sgw.eth[1].mac  framesPassedToHL  ETV
vector 142  Test.sgw.eth[1].mac  framesSent  ETV
vector 144  Test.sgw.eth[1].mac  bytesSent  ETV
vector 63  Test.mme.eth[2].mac  framesReceivedOK  ETV
vector 65  Test.mme.eth[2].mac  bytesReceivedOK  ETV
vector 69  Test.mme.eth[2].mac  framesPassedToHL  ETV
vector 128  Test.sgw.eth[0].mac  framesSent  ETV
vector 130  Test.sgw.eth[0].mac  bytesSent  ETV
vector 99  Test.pgw.eth[0].mac  framesReceivedOK  ETV
vector 101  Test.pgw.eth[0].mac  bytesReceivedOK  ETV
vector 105  Test.pgw.eth[0].mac  framesPassedToHL  ETV
vector 98  Test.pgw.eth[0].mac  framesSent  ETV
vector 100  Test.pgw.eth[0].mac  bytesSent  ETV
vector 129  Test.sgw.eth[0].mac  framesReceivedOK  ETV
vector 131  Test.sgw.eth[0].mac  bytesReceivedOK  ETV
vector 135  Test.sgw.eth[0].mac  framesPassedToHL  ETV
vector 16  Test.enb.eth[1].mac  framesSent  ETV
vector 18  Test.enb.eth[1].mac  bytesSent  ETV
vector 171  Test.sgw.eth[3].mac  framesReceivedOK  ETV
vector 173  Test.sgw.eth[3].mac  bytesReceivedOK  ETV
vector 177  Test.sgw.eth[3].mac  framesPassedToHL  ETV
vector 170  Test.sgw.eth[3].mac  framesSent  ETV
vector 172  Test.sgw.eth[3].mac  bytesSent  ETV
vector 17  Test.enb.eth[1].mac  framesReceivedOK  ETV
vector 19  Test.enb.eth[1].mac  bytesReceivedOK  ETV
vector 23  Test.enb.eth[1].mac  framesPassedToHL  ETV
vector 112  Test.pgw.eth[1].mac  framesSent  ETV
vector 114  Test.pgw.eth[1].mac  bytesSent  ETV
vector 157  Test.sgw.eth[2].mac  framesReceivedOK  ETV
vector 159  Test.sgw.eth[2].mac  bytesReceivedOK  ETV
vector 163  Test.sgw.eth[2].mac  framesPassedToHL  ETV
vector 156  Test.sgw.eth[2].mac  framesSent  ETV
vector 158  Test.sgw.eth[2].mac  bytesSent  ETV
vector 113  Test.pgw.eth[1].mac  framesReceivedOK  ETV
vector 115  Test.pgw.eth[1].mac  bytesReceivedOK  ETV
vector 119  Test.pgw.eth[1].mac  framesPassedToHL  ETV
185	6578 120 147 1578 0.001060799993 30 6 0 65535 327675 21474181125
186	6698 115 147 1578 0.001060799993 30 6 0 4380 21900 95922000
183	6813 164 147 1578 0.001060799993 30 7 0 3 8 14
184	6977 203 191 1578 0.001074719991 30 6 0 0.200019199998 0.80008751999 0.16002944154819
187	7180 101 151 926 0.001060799993 8 5 1000 1004 5010 5020030
188	7281 84 229 830 0.001095519989 6.000018079999 3 2000 2002 6003 12012005
189	7365 25 147 147 0.001060799993 0.001060799993 1 1 1 1 1
191	7390 25 131 131 0.001054079994 0.001054079994 1 1 1 1 1
190	7415 25 131 131 0.001054079994 0.001054079994 1 1 1 1 1
192	7440 25 191 191 0.001074719991 0.001074719991 1 1 1 1 1
182	7465 116 229 892 0.001095519989 6.200018079999 4 65498 65535 262103 17174496679
212	7581 86 151 926 0.001060799993 8 5 0 0 0 0
199	7667 104 110 1578 0.001047199995 30 5 0 65535 262140 17179344900
200	7771 100 110 1578 0.001047199995 30 5 0 4380 17520 76737600
197	7871 139 110 1578 0.001047199995 30 6 0 3 7 13
198	8010 164 165 1578 0.001060959993 30 5 0 0.200024959998 0.400078559991 0.080016385635084
201	8174 58 204 816 0.001078559991 6 3 2000 2002 6003 12012005
202	8232 140 197 940 0.001078559991 8.000011359999 5 1000 1004 5010 5020030
203	8372 25 110 110 0.001047199995 0.001047199995 1 1 1 1 1
205	8397 25 175 175 0.001067839992 0.001067839992 1 1 1 1 1
204	8422 25 175 175 0.001067839992 0.001067839992 1 1 1 1 1
206	8447 25 165 165 0.001060959993 0.001060959993 1 1 1 1 1
194	8472 145 197 945 0.001078559991 8.200011359999 5 65489 65535 327629 21468154021
209	8617 49 204 816 0.001078559991 6 3 0 0 0 0
216	8666 163 351 1578 1.000060799993 30 6 0 65535 327675 21474181125
217	8829 158 351 1578 1.000060799993 30 6 0 4380 21900 95922000
214	8987 192 351 1578 1.000060799993 30 8 0 3 9 15
215	9179 243 395 1578 1.000074719991 30 7 0 0.200031039998 0.800147039987 0.16003981194783
218	9422 144 355 1389 1.000060799993 23.096772012707 5 1000 1004 5010 5020030
219	9566 144 433 1385 1.000115039989 23.096772012707 5 2000 2004 10010 20040030
220	9710 25 351 351 1.000060799993 1.000060799993 1 1 1 1 1
222	9735 25 335 335 1.000054079994 1.000054079994 1 1 1 1 1
221	9760 25 335 335 1.000054079994 1.000054079994 1 1 1 1 1
223	9785 25 395 395 1.000074719991 1.000074719991 1 1 1 1 1
213	9810 180 433 1407 1.000115039989 23.296772012707 6 65363 65535 393038 25746502894
240	9990 129 355 1389 1.000060799993 23.096772012707 5 0 0 0 0
227	10119 162 314 1578 1.000047199995 30 6 0 65535 327675 21474181125
228	10281 157 314 1578 1.000047199995 30 6 0 4380 21900 95922000
225	10438 193 314 1578 1.000047199995 30 8 0 3 9 15
226	10631 244 369 1578 1.000060959993 30 7 0 0.200040319998 0.800148959987 0.16004032422738
229	10875 143 408 1371 1.000087519991 23.096760652708 5 2000 2004 10010 20040030
230	11018 143 401 1403 1.000087519991 23.096784332706 5 1000 1004 5010 5020030
231	11161 25 314 314 1.000047199995 1.000047199995 1 1 1 1 1
233	11186 25 379 379 1.000067839992 1.000067839992 1 1 1 1 1
232	11211 25 379 379 1.000067839992 1.000067839992 1 1 1 1 1
234	11236 25 369 369 1.000060959993 1.000060959993 1 1 1 1 1
195	11261 236 401 1422 1.000087519991 23.296784332706 8 65375 65535 524120 34337744200
237	11497 128 408 1371 1.000087519991 23.096760652708 5 0 0 0 0
0	11625 92 154 168 0.001060799993 0.001067839992 4 0 2 4 6
2	11717 301 53 935 0.001006719999 8.000011359999 13 1 13 91 819
3	12018 300 66 955 0.001013439998 8.200018239998 13 1 13 91 819
4	12318 325 53 935 0.001006719999 8.000011359999 13 64 1212 8136 6774856
5	12643 324 66 955 0.001013439998 8.200018239998 13 64 1150 7856 6173416
9	12967 300 66 955 0.001013439998 8.200018239998 13 1 13 91 819
16	13267 100 971 1488 9.090631898068 28.422056252807 4 1 4 10 30
17	13367 101 984 1505 9.090638618067 28.422062972806 4 1 4 10 30
18	13468 107 971 1488 9.090631898068 28.422056252807 4 64 256 640 122880
19	13575 108 984 1505 9.090638618067 28.422062972806 4 64 256 640 122880
23	13683 101 984 1505 9.090638618067 28.422062972806 4 1 4 10 30
32	13784 95 119 214 0.001047199995 0.00108543999 4 0 1 2 2
34	13879 313 65 954 0.001013439998 8.200018239998 13 1 13 91 819
35	14192 314 54 936 0.001006719999 8.000011359999 13 1 13 91 819
36	14506 337 65 954 0.001013439998 8.200018239998 13 64 1150 7856 6173416
37	14843 338 54 936 0.001006719999 8.000011359999 13 64 1212 8136 6774856
41	15181 314 54 936 0.001006719999 8.000011359999 13 1 13 91 819
46	15495 96 358 372 1.000060799993 1.000067839992 4 0 2 4 6
48	15591 373 257 1416 1.000006719999 23.296778892706 15 1 15 120 1240
49	15964 373 270 1432 1.000013439998 23.296791212705 15 1 15 120 1240
50	16337 403 257 1416 1.000006719999 23.296778892706 15 64 1780 13874 17894172
51	16740 402 270 1432 1.000013439998 23.296791212705 15 64 1818 13950 18296876
55	17142 373 270 1432 1.000013439998 23.296791212705 15 1 15 120 1240
62	17515 149 646 1570 4.000076639996 29.480276757934 6 1 6 21 91
63	17664 148 659 1555 4.000083359995 29.480270037935 6 1 6 21 91
64	17812 160 646 1570 4.000076639996 29.480276757934 6 64 384 1344 372736
65	17972 159 659 1555 4.000083359995 29.480270037935 6 64 384 1344 372736
69	18131 148 659 1555 4.000083359995 29.480270037935 6 1 6 21 91
78	18279 95 323 418 1.000047199995 1.00009439999 4 0 1 2 2
80	18374 373 269 1431 1.000013439998 23.296791212705 15 1 15 120 1240
81	18747 373 258 1417 1.000006719999 23.296778892706 15 1 15 120 1240
82	19120 402 269 1431 1.000013439998 23.296791212705 15 64 1818 13950 18296876
83	19522 403 258 1417 1.000006719999 23.296778892706 15 64 1780 13874 17894172
87	19925 373 258 1417 1.000006719999 23.296778892706 15 1 15 120 1240
98	20298 125 698 1521 4.000103519992 28.503072564998 5 1 5 15 55
99	20423 126 687 1538 4.000096799993 28.503079284997 5 1 5 15 55
100	20549 139 698 1521 4.000103519992 28.503072564998 5 64 320 960 225280
101	20688 140 687 1538 4.000096799993 28.503079284997 5 64 320 960 225280
105	20828 131 687 1538 4.000096799993 28.503079284997 5 1 5 15 55
112	20959 106 1061 1469 9.919915405609 27.050129693673 4 1 4 10 30
113	21065 106 1074 1454 9.919922125608 27.050122973674 4 1 4 10 30
114	21171 113 1061 1469 9.919915405609 27.050129693673 4 64 256 640 122880
115	21284 113 1074 1454 9.919922125608 27.050122973674 4 64 256 640 122880
119	21397 106 1074 1454 9.919922125608 27.050122973674 4 1 4 10 30
128	21503 131 686 1537 4.000096799993 28.503079284997 5 1 5 15 55
129	21634 130 699 1522 4.000103519992 28.503072564998 5 1 5 15 55
130	21764 140 686 1537 4.000096799993 28.503079284997 5 64 320 960 225280
131	21904 139 699 1522 4.000103519992 28.503072564998 5 64 320 960 225280
135	22043 130 699 1522 4.000103519992 28.503072564998 5 1 5 15 55
142	22173 154 658 1554 4.000083359995 29.480270037935 6 1 6 21 91
143	22327 155 647 1571 4.000076639996 29.480276757934 6 1 6 21 91
144	22482 165 658 1554 4.000083359995 29.480270037935 6 64 384 1344 372736
145	22647 166 647 1571 4.000076639996 29.480276757934 6 64 384 1344 372736
149	22813 155 647 1571 4.000076639996 29.480276757934 6 1 6 21 91
156	22968 106 1073 1453 9.919922125608 27.050122973674 4 1 4 10 30
157	23074 106 1062 1470 9.919915405609 27.050129693673 4 1 4 10 30
158	23180 113 1073 1453 9.919922125608 27.050122973674 4 64 256 640 122880
159	23293 113 1062 1470 9.919915405609 27.050129693673 4 64 256 640 122880
163	23406 106 1062 1470 9.919915405609 27.050129693673 4 1 4 10 30
170	23512 105 983 1504 9.090638618067 28.422062972806 4 1 4 10 30
171	23617 104 972 1489 9.090631898068 28.422056252807 4 1 4 10 30
172	23721 112 983 1504 9.090638618067 28.422062972806 4 64 256 640 122880
173	23833 111 972 1489 9.090631898068 28.422056252807 4 64 256 640 122880
177	23944 104 972 1489 9.090631898068 28.422056252807 4 1 4 10 30
