version 2
run General-0-20121029-15:43:04-4188
attr configname General
attr datetime 20121029-15:43:04
attr experiment General
attr inifile omnetpp.ini
attr iterationvars ""
attr iterationvars2 $repetition=0
attr measurement ""
attr network Test
attr processid 4188
attr repetition 0
attr replication #0
attr resultdir results
attr runnumber 0
attr seedset 0

vector 34  Test.enb.networkLayer.arp  sentReq:vector  ETV
attr title  "ARP request sent, vector"
vector 36  Test.enb.networkLayer.arp  initiatedResolution:vector  ETV
attr title  "ARP initiated resolutions, vector"
vector 19  Test.enb.eth[0].encap  encapPk:vector(packetBytes)  ETV
attr interpolationmode  none
attr source  encapPk
attr title  "packets encapsulated, vector(packetBytes)"
vector 15  Test.enb.eth[0].mac  rxPkFromHL:vector(packetBytes)  ETV
attr interpolationmode  none
attr source  rxPkFromHL
attr title  "packet bytes from higher layer, vector(packetBytes)"
vector 10  Test.enb.eth[0].mac  txPk:vector(packetBytes)  ETV
attr interpolationmode  none
attr source  txPk
attr title  "packets transmitted, vector(packetBytes)"
vector 58  Test.mme.eth[0].mac  rxPkOk:vector(packetBytes)  ETV
attr interpolationmode  none
attr source  rxPkOk
attr title  "packets received OK, vector(packetBytes)"
vector 59  Test.mme.eth[0].mac  passedUpPk:vector(packetBytes)  ETV
attr interpolationmode  none
attr source  packetSentToUpper
attr title  "packets passed to higher layer, vector(packetBytes)"
vector 67  Test.mme.eth[0].encap  decapPk:vector(packetBytes)  ETV
attr interpolationmode  none
attr source  decapPk
attr title  "packets decapsulated, vector(packetBytes)"
vector 66  Test.mme.eth[0].encap  encapPk:vector(packetBytes)  ETV
attr interpolationmode  none
attr source  encapPk
attr title  "packets encapsulated, vector(packetBytes)"
vector 62  Test.mme.eth[0].mac  rxPkFromHL:vector(packetBytes)  ETV
attr interpolationmode  none
attr source  rxPkFromHL
attr title  "packet bytes from higher layer, vector(packetBytes)"
vector 57  Test.mme.eth[0].mac  txPk:vector(packetBytes)  ETV
attr interpolationmode  none
attr source  txPk
attr title  "packets transmitted, vector(packetBytes)"
vector 11  Test.enb.eth[0].mac  rxPkOk:vector(packetBytes)  ETV
attr interpolationmode  none
attr source  rxPkOk
attr title  "packets received OK, vector(packetBytes)"
vector 12  Test.enb.eth[0].mac  passedUpPk:vector(packetBytes)  ETV
attr interpolationmode  none
attr source  packetSentToUpper
attr title  "packets passed to higher layer, vector(packetBytes)"
vector 20  Test.enb.eth[0].encap  decapPk:vector(packetBytes)  ETV
attr interpolationmode  none
attr source  decapPk
attr title  "packets decapsulated, vector(packetBytes)"
vector 244  Test.mme.sctp  "Slow Start Threshold 13:192.168.2.1"  ETV
vector 245  Test.mme.sctp  "Congestion Window 13:192.168.2.1"  ETV
vector 248  Test.mme.sctp  "HB Sent 13:192.168.2.1"  ETV
vector 242  Test.mme.sctp  "RTO 13:192.168.2.1"  ETV
vector 235  Test.enb.sctp  "HB ACK Sent 5:192.168.2.2"  ETV
vector 236  Test.enb.sctp  "HB Received 5:192.168.2.2"  ETV
vector 230  Test.enb.sctp  "Slow Start Threshold 5:192.168.2.2"  ETV
vector 231  Test.enb.sctp  "Congestion Window 5:192.168.2.2"  ETV
vector 234  Test.enb.sctp  "HB Sent 5:192.168.2.2"  ETV
vector 228  Test.enb.sctp  "RTO 5:192.168.2.2"  ETV
vector 257  Test.enb.sctp  "SendQueue of Association 5"  ETV
vector 232  Test.enb.sctp  "TSN Sent 5:192.168.2.2"  ETV
vector 251  Test.mme.sctp  "HB ACK Received 13:192.168.2.1"  ETV
vector 243  Test.mme.sctp  "RTT 13:192.168.2.1"  ETV
vector 249  Test.mme.sctp  "HB ACK Sent 13:192.168.2.1"  ETV
vector 250  Test.mme.sctp  "HB Received 13:192.168.2.1"  ETV
vector 237  Test.enb.sctp  "HB ACK Received 5:192.168.2.2"  ETV
vector 229  Test.enb.sctp  "RTT 5:192.168.2.2"  ETV
vector 247  Test.mme.sctp  "TSN Received 13:192.168.2.1"  ETV
vector 239  Test.mme.sctp  "Advertised Receiver Window 10"  ETV
vector 254  Test.mme.sctp  "SendQueue of Association 13"  ETV
vector 246  Test.mme.sctp  "TSN Sent 13:192.168.2.1"  ETV
vector 233  Test.enb.sctp  "TSN Received 5:192.168.2.2"  ETV
vector 227  Test.enb.sctp  "Advertised Receiver Window 5"  ETV
vector 93  Test.mme.networkLayer.arp  sentReq:vector  ETV
attr title  "ARP request sent, vector"
vector 95  Test.mme.networkLayer.arp  initiatedResolution:vector  ETV
attr title  "ARP initiated resolutions, vector"
vector 78  Test.mme.eth[1].encap  encapPk:vector(packetBytes)  ETV
attr interpolationmode  none
attr source  encapPk
attr title  "packets encapsulated, vector(packetBytes)"
vector 74  Test.mme.eth[1].mac  rxPkFromHL:vector(packetBytes)  ETV
attr interpolationmode  none
attr source  rxPkFromHL
attr title  "packet bytes from higher layer, vector(packetBytes)"
vector 69  Test.mme.eth[1].mac  txPk:vector(packetBytes)  ETV
attr interpolationmode  none
attr source  txPk
attr title  "packets transmitted, vector(packetBytes)"
vector 112  Test.hss.eth[0].mac  rxPkOk:vector(packetBytes)  ETV
attr interpolationmode  none
attr source  rxPkOk
attr title  "packets received OK, vector(packetBytes)"
vector 113  Test.hss.eth[0].mac  passedUpPk:vector(packetBytes)  ETV
attr interpolationmode  none
attr source  packetSentToUpper
attr title  "packets passed to higher layer, vector(packetBytes)"
vector 121  Test.hss.eth[0].encap  decapPk:vector(packetBytes)  ETV
attr interpolationmode  none
attr source  decapPk
attr title  "packets decapsulated, vector(packetBytes)"
vector 120  Test.hss.eth[0].encap  encapPk:vector(packetBytes)  ETV
attr interpolationmode  none
attr source  encapPk
attr title  "packets encapsulated, vector(packetBytes)"
vector 116  Test.hss.eth[0].mac  rxPkFromHL:vector(packetBytes)  ETV
attr interpolationmode  none
attr source  rxPkFromHL
attr title  "packet bytes from higher layer, vector(packetBytes)"
vector 111  Test.hss.eth[0].mac  txPk:vector(packetBytes)  ETV
attr interpolationmode  none
attr source  txPk
attr title  "packets transmitted, vector(packetBytes)"
vector 70  Test.mme.eth[1].mac  rxPkOk:vector(packetBytes)  ETV
attr interpolationmode  none
attr source  rxPkOk
attr title  "packets received OK, vector(packetBytes)"
vector 71  Test.mme.eth[1].mac  passedUpPk:vector(packetBytes)  ETV
attr interpolationmode  none
attr source  packetSentToUpper
attr title  "packets passed to higher layer, vector(packetBytes)"
vector 79  Test.mme.eth[1].encap  decapPk:vector(packetBytes)  ETV
attr interpolationmode  none
attr source  decapPk
attr title  "packets decapsulated, vector(packetBytes)"
vector 272  Test.hss.sctp  "Slow Start Threshold 14:192.168.3.2"  ETV
vector 273  Test.hss.sctp  "Congestion Window 14:192.168.3.2"  ETV
vector 276  Test.hss.sctp  "HB Sent 14:192.168.3.2"  ETV
vector 270  Test.hss.sctp  "RTO 14:192.168.3.2"  ETV
vector 266  Test.mme.sctp  "HB ACK Sent 8:192.168.3.1"  ETV
vector 267  Test.mme.sctp  "HB Received 8:192.168.3.1"  ETV
vector 261  Test.mme.sctp  "Slow Start Threshold 8:192.168.3.1"  ETV
vector 262  Test.mme.sctp  "Congestion Window 8:192.168.3.1"  ETV
vector 265  Test.mme.sctp  "HB Sent 8:192.168.3.1"  ETV
vector 259  Test.mme.sctp  "RTO 8:192.168.3.1"  ETV
vector 285  Test.mme.sctp  "SendQueue of Association 8"  ETV
vector 263  Test.mme.sctp  "TSN Sent 8:192.168.3.1"  ETV
vector 279  Test.hss.sctp  "HB ACK Received 14:192.168.3.2"  ETV
vector 271  Test.hss.sctp  "RTT 14:192.168.3.2"  ETV
vector 277  Test.hss.sctp  "HB ACK Sent 14:192.168.3.2"  ETV
vector 278  Test.hss.sctp  "HB Received 14:192.168.3.2"  ETV
vector 268  Test.mme.sctp  "HB ACK Received 8:192.168.3.1"  ETV
vector 260  Test.mme.sctp  "RTT 8:192.168.3.1"  ETV
vector 275  Test.hss.sctp  "TSN Received 14:192.168.3.2"  ETV
vector 240  Test.hss.sctp  "Advertised Receiver Window 12"  ETV
vector 282  Test.hss.sctp  "SendQueue of Association 14"  ETV
vector 274  Test.hss.sctp  "TSN Sent 14:192.168.3.2"  ETV
vector 264  Test.mme.sctp  "TSN Received 8:192.168.3.1"  ETV
vector 258  Test.mme.sctp  "Advertised Receiver Window 8"  ETV
vector 52  Test.mme.udp  sentPk:vector(packetBytes)  ETV
attr interpolationmode  none
attr source  sentPk
attr title  "packets sent, vector(packetBytes)"
vector 90  Test.mme.eth[2].encap  encapPk:vector(packetBytes)  ETV
attr interpolationmode  none
attr source  encapPk
attr title  "packets encapsulated, vector(packetBytes)"
vector 86  Test.mme.eth[2].mac  rxPkFromHL:vector(packetBytes)  ETV
attr interpolationmode  none
attr source  rxPkFromHL
attr title  "packet bytes from higher layer, vector(packetBytes)"
vector 81  Test.mme.eth[2].mac  txPk:vector(packetBytes)  ETV
attr interpolationmode  none
attr source  txPk
attr title  "packets transmitted, vector(packetBytes)"
vector 192  Test.sgw.eth[1].mac  rxPkOk:vector(packetBytes)  ETV
attr interpolationmode  none
attr source  rxPkOk
attr title  "packets received OK, vector(packetBytes)"
vector 193  Test.sgw.eth[1].mac  passedUpPk:vector(packetBytes)  ETV
attr interpolationmode  none
attr source  packetSentToUpper
attr title  "packets passed to higher layer, vector(packetBytes)"
vector 201  Test.sgw.eth[1].encap  decapPk:vector(packetBytes)  ETV
attr interpolationmode  none
attr source  decapPk
attr title  "packets decapsulated, vector(packetBytes)"
vector 200  Test.sgw.eth[1].encap  encapPk:vector(packetBytes)  ETV
attr interpolationmode  none
attr source  encapPk
attr title  "packets encapsulated, vector(packetBytes)"
vector 196  Test.sgw.eth[1].mac  rxPkFromHL:vector(packetBytes)  ETV
attr interpolationmode  none
attr source  rxPkFromHL
attr title  "packet bytes from higher layer, vector(packetBytes)"
vector 191  Test.sgw.eth[1].mac  txPk:vector(packetBytes)  ETV
attr interpolationmode  none
attr source  txPk
attr title  "packets transmitted, vector(packetBytes)"
vector 82  Test.mme.eth[2].mac  rxPkOk:vector(packetBytes)  ETV
attr interpolationmode  none
attr source  rxPkOk
attr title  "packets received OK, vector(packetBytes)"
vector 83  Test.mme.eth[2].mac  passedUpPk:vector(packetBytes)  ETV
attr interpolationmode  none
attr source  packetSentToUpper
attr title  "packets passed to higher layer, vector(packetBytes)"
vector 91  Test.mme.eth[2].encap  decapPk:vector(packetBytes)  ETV
attr interpolationmode  none
attr source  decapPk
attr title  "packets decapsulated, vector(packetBytes)"
vector 166  Test.sgw.udp  rcvdPk:vector(packetBytes)  ETV
attr interpolationmode  none
attr source  rcvdPk
attr title  "packets received, vector(packetBytes)"
vector 167  Test.sgw.udp  passedUpPk:vector(count)  ETV
attr interpolationmode  none
attr title  "packets passed up, vector(count)"
vector 165  Test.sgw.udp  sentPk:vector(packetBytes)  ETV
attr interpolationmode  none
attr source  sentPk
attr title  "packets sent, vector(packetBytes)"
vector 175  Test.sgw.networkLayer.arp  sentReq:vector  ETV
attr title  "ARP request sent, vector"
vector 177  Test.sgw.networkLayer.arp  initiatedResolution:vector  ETV
attr title  "ARP initiated resolutions, vector"
vector 188  Test.sgw.eth[0].encap  encapPk:vector(packetBytes)  ETV
attr interpolationmode  none
attr source  encapPk
attr title  "packets encapsulated, vector(packetBytes)"
vector 184  Test.sgw.eth[0].mac  rxPkFromHL:vector(packetBytes)  ETV
attr interpolationmode  none
attr source  rxPkFromHL
attr title  "packet bytes from higher layer, vector(packetBytes)"
vector 179  Test.sgw.eth[0].mac  txPk:vector(packetBytes)  ETV
attr interpolationmode  none
attr source  txPk
attr title  "packets transmitted, vector(packetBytes)"
vector 142  Test.pgw.eth[0].mac  rxPkOk:vector(packetBytes)  ETV
attr interpolationmode  none
attr source  rxPkOk
attr title  "packets received OK, vector(packetBytes)"
vector 143  Test.pgw.eth[0].mac  passedUpPk:vector(packetBytes)  ETV
attr interpolationmode  none
attr source  packetSentToUpper
attr title  "packets passed to higher layer, vector(packetBytes)"
vector 151  Test.pgw.eth[0].encap  decapPk:vector(packetBytes)  ETV
attr interpolationmode  none
attr source  decapPk
attr title  "packets decapsulated, vector(packetBytes)"
vector 150  Test.pgw.eth[0].encap  encapPk:vector(packetBytes)  ETV
attr interpolationmode  none
attr source  encapPk
attr title  "packets encapsulated, vector(packetBytes)"
vector 146  Test.pgw.eth[0].mac  rxPkFromHL:vector(packetBytes)  ETV
attr interpolationmode  none
attr source  rxPkFromHL
attr title  "packet bytes from higher layer, vector(packetBytes)"
vector 141  Test.pgw.eth[0].mac  txPk:vector(packetBytes)  ETV
attr interpolationmode  none
attr source  txPk
attr title  "packets transmitted, vector(packetBytes)"
vector 180  Test.sgw.eth[0].mac  rxPkOk:vector(packetBytes)  ETV
attr interpolationmode  none
attr source  rxPkOk
attr title  "packets received OK, vector(packetBytes)"
vector 181  Test.sgw.eth[0].mac  passedUpPk:vector(packetBytes)  ETV
attr interpolationmode  none
attr source  packetSentToUpper
attr title  "packets passed to higher layer, vector(packetBytes)"
vector 189  Test.sgw.eth[0].encap  decapPk:vector(packetBytes)  ETV
attr interpolationmode  none
attr source  decapPk
attr title  "packets decapsulated, vector(packetBytes)"
vector 128  Test.pgw.udp  rcvdPk:vector(packetBytes)  ETV
attr interpolationmode  none
attr source  rcvdPk
attr title  "packets received, vector(packetBytes)"
vector 129  Test.pgw.udp  passedUpPk:vector(count)  ETV
attr interpolationmode  none
attr title  "packets passed up, vector(count)"
vector 127  Test.pgw.udp  sentPk:vector(packetBytes)  ETV
attr interpolationmode  none
attr source  sentPk
attr title  "packets sent, vector(packetBytes)"
vector 53  Test.mme.udp  rcvdPk:vector(packetBytes)  ETV
attr interpolationmode  none
attr source  rcvdPk
attr title  "packets received, vector(packetBytes)"
vector 54  Test.mme.udp  passedUpPk:vector(count)  ETV
attr interpolationmode  none
attr title  "packets passed up, vector(count)"
vector 212  Test.sgw.eth[2].encap  encapPk:vector(packetBytes)  ETV
attr interpolationmode  none
attr source  encapPk
attr title  "packets encapsulated, vector(packetBytes)"
vector 208  Test.sgw.eth[2].mac  rxPkFromHL:vector(packetBytes)  ETV
attr interpolationmode  none
attr source  rxPkFromHL
attr title  "packet bytes from higher layer, vector(packetBytes)"
vector 203  Test.sgw.eth[2].mac  txPk:vector(packetBytes)  ETV
attr interpolationmode  none
attr source  txPk
attr title  "packets transmitted, vector(packetBytes)"
vector 154  Test.pgw.eth[1].mac  rxPkOk:vector(packetBytes)  ETV
attr interpolationmode  none
attr source  rxPkOk
attr title  "packets received OK, vector(packetBytes)"
vector 155  Test.pgw.eth[1].mac  passedUpPk:vector(packetBytes)  ETV
attr interpolationmode  none
attr source  packetSentToUpper
attr title  "packets passed to higher layer, vector(packetBytes)"
vector 163  Test.pgw.eth[1].encap  decapPk:vector(packetBytes)  ETV
attr interpolationmode  none
attr source  decapPk
attr title  "packets decapsulated, vector(packetBytes)"
vector 162  Test.pgw.eth[1].encap  encapPk:vector(packetBytes)  ETV
attr interpolationmode  none
attr source  encapPk
attr title  "packets encapsulated, vector(packetBytes)"
vector 158  Test.pgw.eth[1].mac  rxPkFromHL:vector(packetBytes)  ETV
attr interpolationmode  none
attr source  rxPkFromHL
attr title  "packet bytes from higher layer, vector(packetBytes)"
vector 153  Test.pgw.eth[1].mac  txPk:vector(packetBytes)  ETV
attr interpolationmode  none
attr source  txPk
attr title  "packets transmitted, vector(packetBytes)"
vector 204  Test.sgw.eth[2].mac  rxPkOk:vector(packetBytes)  ETV
attr interpolationmode  none
attr source  rxPkOk
attr title  "packets received OK, vector(packetBytes)"
vector 205  Test.sgw.eth[2].mac  passedUpPk:vector(packetBytes)  ETV
attr interpolationmode  none
attr source  packetSentToUpper
attr title  "packets passed to higher layer, vector(packetBytes)"
vector 213  Test.sgw.eth[2].encap  decapPk:vector(packetBytes)  ETV
attr interpolationmode  none
attr source  decapPk
attr title  "packets decapsulated, vector(packetBytes)"
vector 224  Test.sgw.eth[3].encap  encapPk:vector(packetBytes)  ETV
attr interpolationmode  none
attr source  encapPk
attr title  "packets encapsulated, vector(packetBytes)"
vector 220  Test.sgw.eth[3].mac  rxPkFromHL:vector(packetBytes)  ETV
attr interpolationmode  none
attr source  rxPkFromHL
attr title  "packet bytes from higher layer, vector(packetBytes)"
vector 215  Test.sgw.eth[3].mac  txPk:vector(packetBytes)  ETV
attr interpolationmode  none
attr source  txPk
attr title  "packets transmitted, vector(packetBytes)"
vector 23  Test.enb.eth[1].mac  rxPkOk:vector(packetBytes)  ETV
attr interpolationmode  none
attr source  rxPkOk
attr title  "packets received OK, vector(packetBytes)"
vector 24  Test.enb.eth[1].mac  passedUpPk:vector(packetBytes)  ETV
attr interpolationmode  none
attr source  packetSentToUpper
attr title  "packets passed to higher layer, vector(packetBytes)"
vector 32  Test.enb.eth[1].encap  decapPk:vector(packetBytes)  ETV
attr interpolationmode  none
attr source  decapPk
attr title  "packets decapsulated, vector(packetBytes)"
vector 31  Test.enb.eth[1].encap  encapPk:vector(packetBytes)  ETV
attr interpolationmode  none
attr source  encapPk
attr title  "packets encapsulated, vector(packetBytes)"
vector 27  Test.enb.eth[1].mac  rxPkFromHL:vector(packetBytes)  ETV
attr interpolationmode  none
attr source  rxPkFromHL
attr title  "packet bytes from higher layer, vector(packetBytes)"
vector 22  Test.enb.eth[1].mac  txPk:vector(packetBytes)  ETV
attr interpolationmode  none
attr source  txPk
attr title  "packets transmitted, vector(packetBytes)"
vector 216  Test.sgw.eth[3].mac  rxPkOk:vector(packetBytes)  ETV
attr interpolationmode  none
attr source  rxPkOk
attr title  "packets received OK, vector(packetBytes)"
vector 217  Test.sgw.eth[3].mac  passedUpPk:vector(packetBytes)  ETV
attr interpolationmode  none
attr source  packetSentToUpper
attr title  "packets passed to higher layer, vector(packetBytes)"
vector 225  Test.sgw.eth[3].encap  decapPk:vector(packetBytes)  ETV
attr interpolationmode  none
attr source  decapPk
attr title  "packets decapsulated, vector(packetBytes)"
vector 6  Test.enb.udp  rcvdPk:vector(packetBytes)  ETV
attr interpolationmode  none
attr source  rcvdPk
attr title  "packets received, vector(packetBytes)"
vector 7  Test.enb.udp  passedUpPk:vector(count)  ETV
attr interpolationmode  none
attr title  "packets passed up, vector(count)"
vector 5  Test.enb.udp  sentPk:vector(packetBytes)  ETV
attr interpolationmode  none
attr source  sentPk
attr title  "packets sent, vector(packetBytes)"
230	105	0.0006086	65535
230	461	3	65535
230	684	5	65535
230	785	7.0001809	65535
230	896	9	65535
230	1364	30	0
231	105	0.0006086	4380
231	461	3	4380
231	684	5	4380
231	785	7.0001809	4380
231	896	9	4380
231	1364	30	0
228	105	0.0006086	3
228	143	0.000748	1
228	434	2.2001922	1
228	657	4.2001922	1
228	783	6.2003507	1
228	866	8.2001826	1
228	1364	30	0
229	143	0.000748	0.0001394
229	434	2.2001922	0.2001922
229	657	4.2001922	0.2001922
229	783	6.2003507	0.2001698
229	866	8.2001826	0.2001826
229	1364	30	0
232	109	0.0006086	1000
232	372	2	1001
232	466	4	1002
232	706	6.0001809	1003
232	788	8	1004
233	177	0.000956	2000
233	485	4.0000913	2001
233	702	6.0001809	2002
234	105	0.0006086	1
236	92	0.0005414	1
235	92	0.0005414	1
237	143	0.000748	1
227	177	0.000956	65498
227	632	4.2000913	65535
227	706	6.0001809	65535
227	758	6.2001809	65535
257	109	0.0006086	0
257	372	2	0
257	466	4	0
257	706	6.0001809	0
257	788	8	0
244	74	0.0004725	65535
244	320	1.0007863	65535
244	685	5	65535
244	784	7	65535
244	1364	30	0
245	74	0.0004725	4380
245	320	1.0007863	4380
245	685	5	4380
245	784	7	4380
245	1364	30	0
242	74	0.0004725	3
242	123	0.0006103	1
242	192	0.0010249	1
242	651	4.2001602	1
242	770	6.2002498	1
242	1364	30	0
243	123	0.0006103	0.0001378
243	192	0.0010249	0.0002386
243	651	4.2001602	0.2001602
243	770	6.2002498	0.2002498
243	1364	30	0
246	156	0.0007863	2000
246	467	4	2001
246	690	6	2002
247	149	0.0007863	1000
247	384	2.0001233	1001
247	498	4.0001233	1002
247	726	6.0002818	1003
247	800	8.0001137	1004
248	74	0.0004725	1
250	130	0.0006791	1
249	130	0.0006791	1
251	123	0.0006103	1
239	149	0.0007863	65489
239	422	2.2001233	65535
239	639	4.2001233	65535
239	771	6.2002818	65535
239	854	8.2001137	65535
254	156	0.0007863	0
254	467	4	0
254	690	6	0
261	281	1.0006086	65535
261	462	3.0001233	65535
261	686	5.0001233	65535
261	1047	14.825300843832	65535
261	1240	23.066430109828	65535
261	1364	30	0
262	281	1.0006086	4380
262	462	3.0001233	4380
262	686	5.0001233	4380
262	1047	14.825300843832	4380
262	1240	23.066430109828	4380
262	1364	30	0
259	281	1.0006086	3
259	319	1.000748	1
259	347	1.0009448	1
259	447	2.2004339	1
259	670	4.2004339	1
259	1033	14.025483443832	1
259	1238	22.266622309828	1
259	1364	30	0
260	319	1.000748	0.0001394
260	347	1.0009448	0.0003362
260	447	2.2004339	0.2003106
260	670	4.2004339	0.2003106
260	1033	14.025483443832	0.2001826
260	1238	22.266622309828	0.2001922
260	1364	30	0
263	285	1.0006086	1000
263	389	2.0001233	1001
263	503	4.0001233	1002
263	987	13.825300843832	1003
263	1197	22.066430109828	1004
264	354	1.0011512	2000
264	417	2.0005267	2001
264	531	4.0006995	2002
264	1015	13.825537843832	2003
264	1193	22.066430109828	2004
265	281	1.0006086	1
267	268	1.0005414	1
266	268	1.0005414	1
268	319	1.000748	1
258	354	1.0011512	65363
258	448	2.2005267	65535
258	671	4.2006995	65535
258	1034	14.025537843832	65535
258	1197	22.066430109828	65535
258	1213	22.266430109828	65535
285	285	1.0006086	1
285	285	1.0006086	0
285	389	2.0001233	1
285	389	2.0001233	0
285	503	4.0001233	1
285	503	4.0001233	0
285	987	13.825300843832	1
285	987	13.825300843832	0
285	1197	22.066430109828	1
285	1197	22.066430109828	0
272	250	1.0004725	65535
272	463	3.000365	65535
272	687	5.000365	65535
272	1048	14.825414543832	65535
272	1239	23.066316409828	65535
272	1364	30	0
273	250	1.0004725	4380
273	463	3.000365	4380
273	687	5.000365	4380
273	1048	14.825414543832	4380
273	1239	23.066316409828	4380
273	1364	30	0
270	250	1.0004725	3
270	299	1.0006103	1
270	369	1.0012201	1
270	460	2.2005956	1
270	683	4.2007684	1
270	1046	14.025606743832	1
270	1225	22.266499009828	1
270	1364	30	0
271	299	1.0006103	0.0001378
271	369	1.0012201	0.0003442
271	460	2.2005956	0.2002306
271	683	4.2007684	0.2004034
271	1046	14.025606743832	0.2001922
271	1225	22.266499009828	0.2001826
271	1364	30	0
274	333	1.0008759	2000
274	405	2.000365	2001
274	519	4.000365	2002
274	1003	13.825414543832	2003
274	1181	22.066316409828	2004
275	326	1.0008759	1000
275	401	2.000365	1001
275	515	4.000365	1002
275	999	13.825414543832	1003
275	1209	22.066553409828	1004
276	250	1.0004725	1
278	306	1.0006791	1
277	306	1.0006791	1
279	299	1.0006103	1
240	326	1.0008759	65375
240	405	2.000365	65535
240	435	2.200365	65535
240	519	4.000365	65535
240	658	4.200365	65535
240	1003	13.825414543832	65535
240	1021	14.025414543832	65535
240	1226	22.266553409828	65535
282	333	1.0008759	1
282	333	1.0008759	0
282	405	2.000365	1
282	405	2.000365	0
282	519	4.000365	1
282	519	4.000365	0
282	1003	13.825414543832	1
282	1003	13.825414543832	0
282	1181	22.066316409828	1
282	1181	22.066316409828	0
5	932	9.47316804945	8
5	1112	19.272968007694	8
5	1320	28.534816006315	8
6	930	9.47316804945	8
6	1138	19.273102607694	8
6	1318	28.534816006315	8
7	930	9.47316804945	1
7	1138	19.273102607694	2
7	1318	28.534816006315	3
10	25	0.0000672	64
10	45	0.000213	78
10	69	0.0004724	130
10	118	0.0006102	66
10	125	0.000679	66
10	144	0.0007862	114
10	187	0.0010248	66
10	379	2.0001232	134
10	493	4.0001232	134
10	646	4.2001601	66
10	721	6.0002817	106
10	765	6.2002497	66
10	795	8.0001136	122
11	36	0.0001346	64
11	58	0.0003524	154
11	88	0.0005414	66
11	101	0.0006086	64
11	139	0.000748	66
11	166	0.0008552	66
11	173	0.000956	106
11	430	2.2001922	66
11	481	4.0000913	94
11	653	4.2001922	66
11	698	6.0001809	206
11	779	6.2003507	66
11	862	8.2001826	66
12	36	0.0001346	64
12	58	0.0003524	154
12	88	0.0005414	66
12	101	0.0006086	64
12	139	0.000748	66
12	166	0.0008552	66
12	173	0.000956	106
12	430	2.2001922	66
12	481	4.0000913	94
12	653	4.2001922	66
12	698	6.0001809	206
12	779	6.2003507	66
12	862	8.2001826	66
15	17	0	64
15	43	0.0001346	78
15	67	0.0003524	130
15	97	0.0005414	66
15	114	0.0006086	66
15	117	0.0006086	114
15	185	0.000956	66
15	377	2	134
15	476	4	134
15	637	4.2000913	66
15	713	6.0001809	106
15	763	6.2001809	66
15	793	8	122
19	16	0	28
19	42	0.0001346	60
19	66	0.0003524	112
19	96	0.0005414	48
19	112	0.0006086	48
19	116	0.0006086	96
19	184	0.000956	48
19	376	2	116
19	474	4	116
19	636	4.2000913	48
19	712	6.0001809	88
19	762	6.2001809	48
19	792	8	104
20	37	0.0001346	28
20	59	0.0003524	136
20	89	0.0005414	48
20	102	0.0006086	36
20	140	0.000748	48
20	167	0.0008552	48
20	174	0.000956	88
20	431	2.2001922	48
20	482	4.0000913	76
20	654	4.2001922	48
20	699	6.0001809	188
20	780	6.2003507	48
20	863	8.2001826	48
22	915	9.47310064945	64
22	939	9.47323524945	64
22	1119	19.273035207694	64
22	1327	28.534883206315	64
23	906	9.47303344945	64
23	926	9.47316804945	64
23	1134	19.273102607694	64
23	1314	28.534816006315	64
24	906	9.47303344945	64
24	926	9.47316804945	64
24	1134	19.273102607694	64
24	1314	28.534816006315	64
27	913	9.47303344945	64
27	937	9.47316804945	64
27	1117	19.272968007694	64
27	1325	28.534816006315	64
31	912	9.47303344945	28
31	936	9.47316804945	28
31	1116	19.272968007694	28
31	1324	28.534816006315	28
32	907	9.47303344945	28
32	927	9.47316804945	28
32	1135	19.273102607694	28
32	1315	28.534816006315	28
34	14	0	1
36	14	0	1
52	535	4.0006995	8
52	730	6.0002818	8
52	970	10.592754806228	8
52	1150	20.340882616886	8
52	1349	29.641206127103	8
53	629	4.0012379	8
53	756	6.0004164	8
53	968	10.592754806228	8
53	1176	20.341017216886	8
53	1347	29.641206127103	8
54	629	4.0012379	1
54	756	6.0004164	2
54	968	10.592754806228	3
54	1176	20.341017216886	4
54	1347	29.641206127103	5
57	35	0.0001345	64
57	57	0.0003523	154
57	87	0.0005413	66
57	100	0.0006085	64
57	138	0.0007479	66
57	165	0.0008551	66
57	172	0.0009559	106
57	429	2.2001921	66
57	480	4.0000912	94
57	652	4.2001921	66
57	697	6.0001808	206
57	778	6.2003506	66
57	861	8.2001825	66
58	26	0.0000673	64
58	46	0.0002131	78
58	70	0.0004725	130
58	119	0.0006103	66
58	126	0.0006791	66
58	145	0.0007863	114
58	188	0.0010249	66
58	380	2.0001233	134
58	494	4.0001233	134
58	647	4.2001602	66
58	722	6.0002818	106
58	766	6.2002498	66
58	796	8.0001137	122
59	26	0.0000673	64
59	46	0.0002131	78
59	70	0.0004725	130
59	119	0.0006103	66
59	126	0.0006791	66
59	145	0.0007863	114
59	188	0.0010249	66
59	380	2.0001233	134
59	494	4.0001233	134
59	647	4.2001602	66
59	722	6.0002818	106
59	766	6.2002498	66
59	796	8.0001137	122
62	33	0.0000673	64
62	55	0.0002131	154
62	84	0.0004725	66
62	85	0.0004725	64
62	135	0.0006791	66
62	159	0.0007863	66
62	163	0.0007863	106
62	427	2.2001233	66
62	477	4	94
62	644	4.2001233	66
62	695	6	206
62	776	6.2002818	66
62	859	8.2001137	66
66	32	0.0000673	28
66	54	0.0002131	136
66	82	0.0004725	48
66	83	0.0004725	36
66	134	0.0006791	48
66	157	0.0007863	48
66	162	0.0007863	88
66	426	2.2001233	48
66	475	4	76
66	643	4.2001233	48
66	694	6	188
66	775	6.2002818	48
66	858	8.2001137	48
67	27	0.0000673	28
67	47	0.0002131	60
67	71	0.0004725	112
67	120	0.0006103	48
67	127	0.0006791	48
67	146	0.0007863	96
67	189	0.0010249	48
67	381	2.0001233	116
67	495	4.0001233	116
67	648	4.2001602	48
67	723	6.0002818	88
67	767	6.2002498	48
67	797	8.0001137	104
69	201	1.0000672	64
69	221	1.000213	78
69	245	1.0004724	130
69	294	1.0006102	66
69	301	1.000679	66
69	321	1.0008758	226
69	364	1.00122	66
69	396	2.0003649	282
69	455	2.2005955	66
69	510	4.0003649	282
69	678	4.2007683	66
69	994	13.825414443832	122
69	1041	14.025606643832	66
69	1204	22.066553309828	134
69	1220	22.266498909828	66
70	212	1.0001346	64
70	234	1.0003524	154
70	264	1.0005414	66
70	277	1.0006086	64
70	315	1.000748	66
70	343	1.0009448	66
70	350	1.0011512	238
70	413	2.0005267	182
70	443	2.2004339	66
70	527	4.0006995	398
70	666	4.2004339	66
70	1011	13.825537843832	134
70	1029	14.025483443832	66
70	1189	22.066430109828	122
70	1234	22.266622309828	66
71	212	1.0001346	64
71	234	1.0003524	154
71	264	1.0005414	66
71	277	1.0006086	64
71	315	1.000748	66
71	343	1.0009448	66
71	350	1.0011512	238
71	413	2.0005267	182
71	443	2.2004339	66
71	527	4.0006995	398
71	666	4.2004339	66
71	1011	13.825537843832	134
71	1029	14.025483443832	66
71	1189	22.066430109828	122
71	1234	22.266622309828	66
74	199	1	64
74	219	1.0001346	78
74	243	1.0003524	130
74	273	1.0005414	66
74	290	1.0006086	66
74	293	1.0006086	226
74	362	1.0011512	66
74	394	2.0001233	282
74	453	2.2005267	66
74	508	4.0001233	282
74	676	4.2006995	66
74	992	13.825300843832	122
74	1039	14.025537843832	66
74	1202	22.066430109828	134
74	1218	22.266430109828	66
78	198	1	28
78	218	1.0001346	60
78	242	1.0003524	112
78	272	1.0005414	48
78	288	1.0006086	48
78	292	1.0006086	208
78	361	1.0011512	48
78	393	2.0001233	264
78	452	2.2005267	48
78	507	4.0001233	264
78	675	4.2006995	48
78	991	13.825300843832	104
78	1038	14.025537843832	48
78	1201	22.066430109828	116
78	1217	22.266430109828	48
79	213	1.0001346	28
79	235	1.0003524	136
79	265	1.0005414	48
79	278	1.0006086	36
79	316	1.000748	48
79	344	1.0009448	48
79	351	1.0011512	220
79	414	2.0005267	164
79	444	2.2004339	48
79	528	4.0006995	380
79	667	4.2004339	48
79	1012	13.825537843832	116