version 2
run General-0-20120724-18:36:56-5212
attr configname General
attr datetime 20120724-18:36:56
attr experiment General
attr inifile omnetpp.ini
attr iterationvars ""
attr iterationvars2 $repetition=0
attr measurement ""
attr network Test
attr processid 5212
attr repetition 0
attr replication #0
attr resultdir results
attr runnumber 0
attr seedset 0

vector 2  Test.enb.eth[0].mac  framesSent  ETV
vector 4  Test.enb.eth[0].mac  bytesSent  ETV
vector 35  Test.mme.eth[0].mac  framesReceivedOK  ETV
vector 37  Test.mme.eth[0].mac  bytesReceivedOK  ETV
vector 41  Test.mme.eth[0].mac  framesPassedToHL  ETV
vector 34  Test.mme.eth[0].mac  framesSent  ETV
vector 36  Test.mme.eth[0].mac  bytesSent  ETV
vector 3  Test.enb.eth[0].mac  framesReceivedOK  ETV
vector 5  Test.enb.eth[0].mac  bytesReceivedOK  ETV
vector 9  Test.enb.eth[0].mac  framesPassedToHL  ETV
vector 199  Test.mme.sctp  "Slow Start Threshold 13:192.168.2.1"  ETV
vector 200  Test.mme.sctp  "Congestion Window 13:192.168.2.1"  ETV
vector 203  Test.mme.sctp  "HB Sent 13:192.168.2.1"  ETV
vector 197  Test.mme.sctp  "RTO 13:192.168.2.1"  ETV
vector 32  Test.mme.eth[0].queue  "queue length"  ETV
vector 190  Test.enb.sctp  "HB ACK Sent 5:192.168.2.2"  ETV
vector 191  Test.enb.sctp  "HB Received 5:192.168.2.2"  ETV
vector 185  Test.enb.sctp  "Slow Start Threshold 5:192.168.2.2"  ETV
vector 186  Test.enb.sctp  "Congestion Window 5:192.168.2.2"  ETV
vector 189  Test.enb.sctp  "HB Sent 5:192.168.2.2"  ETV
vector 183  Test.enb.sctp  "RTO 5:192.168.2.2"  ETV
vector 212  Test.enb.sctp  "SendQueue of Association 5"  ETV
vector 187  Test.enb.sctp  "TSN Sent 5:192.168.2.2"  ETV
vector 0  Test.enb.eth[0].queue  "queue length"  ETV
vector 206  Test.mme.sctp  "HB ACK Received 13:192.168.2.1"  ETV
vector 198  Test.mme.sctp  "RTT 13:192.168.2.1"  ETV
vector 204  Test.mme.sctp  "HB ACK Sent 13:192.168.2.1"  ETV
vector 205  Test.mme.sctp  "HB Received 13:192.168.2.1"  ETV
vector 192  Test.enb.sctp  "HB ACK Received 5:192.168.2.2"  ETV
vector 184  Test.enb.sctp  "RTT 5:192.168.2.2"  ETV
vector 202  Test.mme.sctp  "TSN Received 13:192.168.2.1"  ETV
vector 194  Test.mme.sctp  "Advertised Receiver Window 10"  ETV
vector 209  Test.mme.sctp  "SendQueue of Association 13"  ETV
vector 201  Test.mme.sctp  "TSN Sent 13:192.168.2.1"  ETV
vector 188  Test.enb.sctp  "TSN Received 5:192.168.2.2"  ETV
vector 182  Test.enb.sctp  "Advertised Receiver Window 5"  ETV
vector 48  Test.mme.eth[1].mac  framesSent  ETV
vector 50  Test.mme.eth[1].mac  bytesSent  ETV
vector 81  Test.hss.eth[0].mac  framesReceivedOK  ETV
vector 83  Test.hss.eth[0].mac  bytesReceivedOK  ETV
vector 87  Test.hss.eth[0].mac  framesPassedToHL  ETV
vector 80  Test.hss.eth[0].mac  framesSent  ETV
vector 82  Test.hss.eth[0].mac  bytesSent  ETV
vector 49  Test.mme.eth[1].mac  framesReceivedOK  ETV
vector 51  Test.mme.eth[1].mac  bytesReceivedOK  ETV
vector 55  Test.mme.eth[1].mac  framesPassedToHL  ETV
vector 227  Test.hss.sctp  "Slow Start Threshold 14:192.168.3.2"  ETV
vector 228  Test.hss.sctp  "Congestion Window 14:192.168.3.2"  ETV
vector 231  Test.hss.sctp  "HB Sent 14:192.168.3.2"  ETV
vector 225  Test.hss.sctp  "RTO 14:192.168.3.2"  ETV
vector 78  Test.hss.eth[0].queue  "queue length"  ETV
vector 221  Test.mme.sctp  "HB ACK Sent 8:192.168.3.1"  ETV
vector 222  Test.mme.sctp  "HB Received 8:192.168.3.1"  ETV
vector 216  Test.mme.sctp  "Slow Start Threshold 8:192.168.3.1"  ETV
vector 217  Test.mme.sctp  "Congestion Window 8:192.168.3.1"  ETV
vector 220  Test.mme.sctp  "HB Sent 8:192.168.3.1"  ETV
vector 214  Test.mme.sctp  "RTO 8:192.168.3.1"  ETV
vector 240  Test.mme.sctp  "SendQueue of Association 8"  ETV
vector 218  Test.mme.sctp  "TSN Sent 8:192.168.3.1"  ETV
vector 46  Test.mme.eth[1].queue  "queue length"  ETV
vector 234  Test.hss.sctp  "HB ACK Received 14:192.168.3.2"  ETV
vector 226  Test.hss.sctp  "RTT 14:192.168.3.2"  ETV
vector 232  Test.hss.sctp  "HB ACK Sent 14:192.168.3.2"  ETV
vector 233  Test.hss.sctp  "HB Received 14:192.168.3.2"  ETV
vector 223  Test.mme.sctp  "HB ACK Received 8:192.168.3.1"  ETV
vector 215  Test.mme.sctp  "RTT 8:192.168.3.1"  ETV
vector 230  Test.hss.sctp  "TSN Received 14:192.168.3.2"  ETV
vector 195  Test.hss.sctp  "Advertised Receiver Window 12"  ETV
vector 237  Test.hss.sctp  "SendQueue of Association 14"  ETV
vector 229  Test.hss.sctp  "TSN Sent 14:192.168.3.2"  ETV
vector 219  Test.mme.sctp  "TSN Received 8:192.168.3.1"  ETV
vector 213  Test.mme.sctp  "Advertised Receiver Window 8"  ETV
vector 62  Test.mme.eth[2].mac  framesSent  ETV
vector 64  Test.mme.eth[2].mac  bytesSent  ETV
vector 143  Test.sgw.eth[1].mac  framesReceivedOK  ETV
vector 145  Test.sgw.eth[1].mac  bytesReceivedOK  ETV
vector 149  Test.sgw.eth[1].mac  framesPassedToHL  ETV
vector 142  Test.sgw.eth[1].mac  framesSent  ETV
vector 144  Test.sgw.eth[1].mac  bytesSent  ETV
vector 63  Test.mme.eth[2].mac  framesReceivedOK  ETV
vector 65  Test.mme.eth[2].mac  bytesReceivedOK  ETV
vector 69  Test.mme.eth[2].mac  framesPassedToHL  ETV
vector 128  Test.sgw.eth[0].mac  framesSent  ETV
vector 130  Test.sgw.eth[0].mac  bytesSent  ETV
vector 99  Test.pgw.eth[0].mac  framesReceivedOK  ETV
vector 101  Test.pgw.eth[0].mac  bytesReceivedOK  ETV
vector 105  Test.pgw.eth[0].mac  framesPassedToHL  ETV
vector 98  Test.pgw.eth[0].mac  framesSent  ETV
vector 100  Test.pgw.eth[0].mac  bytesSent  ETV
vector 129  Test.sgw.eth[0].mac  framesReceivedOK  ETV
vector 131  Test.sgw.eth[0].mac  bytesReceivedOK  ETV
vector 135  Test.sgw.eth[0].mac  framesPassedToHL  ETV
vector 16  Test.enb.eth[1].mac  framesSent  ETV
vector 18  Test.enb.eth[1].mac  bytesSent  ETV
vector 171  Test.sgw.eth[3].mac  framesReceivedOK  ETV
vector 173  Test.sgw.eth[3].mac  bytesReceivedOK  ETV
vector 177  Test.sgw.eth[3].mac  framesPassedToHL  ETV
vector 170  Test.sgw.eth[3].mac  framesSent  ETV
vector 172  Test.sgw.eth[3].mac  bytesSent  ETV
vector 17  Test.enb.eth[1].mac  framesReceivedOK  ETV
vector 19  Test.enb.eth[1].mac  bytesReceivedOK  ETV
vector 23  Test.enb.eth[1].mac  framesPassedToHL  ETV
vector 112  Test.pgw.eth[1].mac  framesSent  ETV
vector 114  Test.pgw.eth[1].mac  bytesSent  ETV
vector 157  Test.sgw.eth[2].mac  framesReceivedOK  ETV
vector 159  Test.sgw.eth[2].mac  bytesReceivedOK  ETV
vector 163  Test.sgw.eth[2].mac  framesPassedToHL  ETV
vector 156  Test.sgw.eth[2].mac  framesSent  ETV
vector 158  Test.sgw.eth[2].mac  bytesSent  ETV
vector 113  Test.pgw.eth[1].mac  framesReceivedOK  ETV
vector 115  Test.pgw.eth[1].mac  bytesReceivedOK  ETV
vector 119  Test.pgw.eth[1].mac  framesPassedToHL  ETV
185	147	0.001060799993	65535
185	555	3	65535
185	810	5	65535
185	923	7.000018079999	65535
185	960	9	65535
185	1578	30	0
186	147	0.001060799993	4380
186	555	3	4380
186	810	5	4380
186	923	7.000018079999	4380
186	960	9	4380
186	1578	30	0
183	147	0.001060799993	3
183	191	0.001074719991	1
183	524	2.200019199998	1
183	779	4.200019199998	1
183	921	6.200035039997	1
183	959	8.200018239998	1
183	1578	30	0
184	191	0.001074719991	1.3919998e-005
184	524	2.200019199998	0.200019199998
184	779	4.200019199998	0.200019199998
184	921	6.200035039997	0.200016959998
184	959	8.200018239998	0.200018239998
184	1578	30	0
187	151	0.001060799993	1000
187	454	2	1001
187	560	4	1002
187	834	6.000018079999	1003
187	926	8	1004
188	229	0.001095519989	2000
188	583	4.000009119999	2001
188	830	6.000018079999	2002
189	147	0.001060799993	1
191	131	0.001054079994	1
190	131	0.001054079994	1
192	191	0.001074719991	1
182	229	0.001095519989	65498
182	750	4.200009119999	65535
182	834	6.000018079999	65535
182	892	6.200018079999	65535
212	151	0.001060799993	0
212	454	2	0
212	560	4	0
212	834	6.000018079999	0
212	926	8	0
199	110	0.001047199995	65535
199	451	1.001078559991	65535
199	811	5	65535
199	922	7	65535
199	1578	30	0
200	110	0.001047199995	4380
200	451	1.001078559991	4380
200	811	5	4380
200	922	7	4380
200	1578	30	0
197	110	0.001047199995	3
197	165	0.001060959993	1
197	246	0.001102399988	1
197	773	4.200015999998	1
197	906	6.200024959998	1
197	1578	30	0
198	165	0.001060959993	1.3759998e-005
198	246	0.001102399988	2.3839997e-005
198	773	4.200015999998	0.200015999998
198	906	6.200024959998	0.200024959998
198	1578	30	0
201	204	0.001078559991	2000
201	561	4	2001
201	816	6	2002
202	197	0.001078559991	1000
202	468	2.000012319999	1001
202	596	4.000012319999	1002
202	856	6.000028159998	1003
202	940	8.000011359999	1004
203	110	0.001047199995	1
205	175	0.001067839992	1
204	175	0.001067839992	1
206	165	0.001060959993	1
194	197	0.001078559991	65489
194	510	2.200012319999	65535
194	759	4.200012319999	65535
194	907	6.200028159998	65535
194	945	8.200011359999	65535
209	204	0.001078559991	0
209	561	4	0
209	816	6	0
216	351	1.000060799993	65535
216	556	3.000012319999	65535
216	812	5.000012319999	65535
216	1221	14.658717684471	65535
216	1440	24.096772012707	65535
216	1578	30	0
217	351	1.000060799993	4380
217	556	3.000012319999	4380
217	812	5.000012319999	4380
217	1221	14.658717684471	4380
217	1440	24.096772012707	4380
217	1578	30	0
214	351	1.000060799993	3
214	395	1.000074719991	1
214	425	1.00009439999	1
214	539	2.200043359997	1
214	794	4.200043359997	1
214	1203	13.858735924469	1
214	1436	23.296791212705	1
214	1578	30	0
215	395	1.000074719991	1.3919998e-005
215	425	1.00009439999	3.3599997e-005
215	539	2.200043359997	0.200031039998
215	794	4.200043359997	0.200031039998
215	1203	13.858735924469	0.200018239998
215	1436	23.296791212705	0.200019199998
215	1578	30	0
218	355	1.000060799993	1000
218	473	2.000012319999	1001
218	601	4.000012319999	1002
218	1153	13.658717684471	1003
218	1389	23.096772012707	1004
219	433	1.000115039989	2000
219	505	2.000052639997	2001
219	633	4.000069919997	2002
219	1185	13.658741364469	2003
219	1385	23.096772012707	2004
220	351	1.000060799993	1
222	335	1.000054079994	1
221	335	1.000054079994	1
223	395	1.000074719991	1
213	433	1.000115039989	65363
213	540	2.200052639997	65535
213	795	4.200069919997	65535
213	1204	13.858741364469	65535
213	1389	23.096772012707	65535
213	1407	23.296772012707	65535
240	355	1.000060799993	0
240	473	2.000012319999	0
240	601	4.000012319999	0
240	1153	13.658717684471	0
240	1389	23.096772012707	0
227	314	1.000047199995	65535
227	557	3.000036479998	65535
227	813	5.000036479998	65535
227	1222	14.65872904447	65535
227	1439	24.096760652708	65535
227	1578	30	0
228	314	1.000047199995	4380
228	557	3.000036479998	4380
228	813	5.000036479998	4380
228	1222	14.65872904447	4380
228	1439	24.096760652708	4380
228	1578	30	0
225	314	1.000047199995	3
225	369	1.000060959993	1
225	450	1.000121919988	1
225	554	2.200059519996	1
225	809	4.200076799996	1
225	1218	13.858748244468	1
225	1421	23.296778892706	1
225	1578	30	0
226	369	1.000060959993	1.3759998e-005
226	450	1.000121919988	3.4399997e-005
226	554	2.200059519996	0.200023039998
226	809	4.200076799996	0.200040319998
226	1218	13.858748244468	0.200019199998
226	1421	23.296778892706	0.200018239998
226	1578	30	0
229	408	1.000087519991	2000
229	491	2.000036479998	2001
229	619	4.000036479998	2002
229	1171	13.65872904447	2003
229	1371	23.096760652708	2004
230	401	1.000087519991	1000
230	487	2.000036479998	1001
230	615	4.000036479998	1002
230	1167	13.65872904447	1003
230	1403	23.096784332706	1004
231	314	1.000047199995	1
233	379	1.000067839992	1
232	379	1.000067839992	1
234	369	1.000060959993	1
195	401	1.000087519991	65375
195	491	2.000036479998	65535
195	525	2.200036479998	65535
195	619	4.000036479998	65535
195	780	4.200036479998	65535
195	1171	13.65872904447	65535
195	1189	13.85872904447	65535
195	1422	23.296784332706	65535
237	408	1.000087519991	0
237	491	2.000036479998	0
237	619	4.000036479998	0
237	1171	13.65872904447	0
237	1371	23.096760652708	0
0	154	0.001060799993	1
0	157	0.001060799993	2
0	158	0.001060959993	1
0	168	0.001067839992	0
2	53	0.001006719999	1
2	77	0.001021279997	2
2	105	0.001047199995	3
2	158	0.001060959993	4
2	168	0.001067839992	5
2	192	0.001078559991	6
2	241	0.001102399988	7
2	463	2.000012319999	8
2	591	4.000012319999	9
2	768	4.200015999998	10
2	851	6.000028159998	11
2	901	6.200024959998	12
2	935	8.000011359999	13
3	66	0.001013439998	1
3	92	0.001035199996	2
3	125	0.001054079994	3
3	143	0.001060799993	4
3	187	0.001074719991	5
3	215	0.00108543999	6
3	225	0.001095519989	7
3	520	2.200019199998	8
3	579	4.000009119999	9
3	775	4.200019199998	10
3	826	6.000018079999	11
3	917	6.200035039997	12
3	955	8.200018239998	13
4	53	0.001006719999	64
4	77	0.001021279997	142
4	105	0.001047199995	272
4	158	0.001060959993	338
4	168	0.001067839992	404
4	192	0.001078559991	518
4	241	0.001102399988	584
4	463	2.000012319999	718
4	591	4.000012319999	852
4	768	4.200015999998	918
4	851	6.000028159998	1024
4	901	6.200024959998	1090
4	935	8.000011359999	1212
5	66	0.001013439998	64
5	92	0.001035199996	218
5	125	0.001054079994	284
5	143	0.001060799993	348
5	187	0.001074719991	414
5	215	0.00108543999	480
5	225	0.001095519989	586
5	520	2.200019199998	652
5	579	4.000009119999	746
5	775	4.200019199998	812
5	826	6.000018079999	1018
5	917	6.200035039997	1084
5	955	8.200018239998	1150
9	66	0.001013439998	1
9	92	0.001035199996	2
9	125	0.001054079994	3
9	143	0.001060799993	4
9	187	0.001074719991	5
9	215	0.00108543999	6
9	225	0.001095519989	7
9	520	2.200019199998	8
9	579	4.000009119999	9
9	775	4.200019199998	10
9	826	6.000018079999	11
9	917	6.200035039997	12
9	955	8.200018239998	13
16	971	9.090631898068	1
16	995	9.090645338066	2
16	1251	17.631531471126	3
16	1488	28.422056252807	4
17	984	9.090638618067	1
17	1012	9.090652058065	2
17	1236	17.631524751127	3
17	1505	28.422062972806	4
18	971	9.090631898068	64
18	995	9.090645338066	128
18	1251	17.631531471126	192
18	1488	28.422056252807	256
19	984	9.090638618067	64
19	1012	9.090652058065	128
19	1236	17.631524751127	192
19	1505	28.422062972806	256
23	984	9.090638618067	1
23	1012	9.090652058065	2
23	1236	17.631524751127	3
23	1505	28.422062972806	4
32	119	0.001047199995	1
32	124	0.001054079994	0
32	211	0.001078559991	1
32	214	0.00108543999	0
34	65	0.001013439998	1
34	91	0.001035199996	2
34	124	0.001054079994	3
34	142	0.001060799993	4
34	186	0.001074719991	5
34	214	0.00108543999	6
34	224	0.001095519989	7
34	519	2.200019199998	8
34	578	4.000009119999	9
34	774	4.200019199998	10
34	825	6.000018079999	11
34	916	6.200035039997	12
34	954	8.200018239998	13
35	54	0.001006719999	1
35	78	0.001021279997	2
35	106	0.001047199995	3
35	159	0.001060959993	4
35	169	0.001067839992	5
35	193	0.001078559991	6
35	242	0.001102399988	7
35	464	2.000012319999	8
35	592	4.000012319999	9
35	769	4.200015999998	10
35	852	6.000028159998	11
35	902	6.200024959998	12
35	936	8.000011359999	13
36	65	0.001013439998	64
36	91	0.001035199996	218
36	124	0.001054079994	284
36	142	0.001060799993	348
36	186	0.001074719991	414
36	214	0.00108543999	480
36	224	0.001095519989	586
36	519	2.200019199998	652
36	578	4.000009119999	746
36	774	4.200019199998	812
36	825	6.000018079999	1018
36	916	6.200035039997	1084
36	954	8.200018239998	1150
37	54	0.001006719999	64
37	78	0.001021279997	142
37	106	0.001047199995	272
37	159	0.001060959993	338
37	169	0.001067839992	404
37	193	0.001078559991	518
37	242	0.001102399988	584
37	464	2.000012319999	718
37	592	4.000012319999	852
37	769	4.200015999998	918
37	852	6.000028159998	1024
37	902	6.200024959998	1090
37	936	8.000011359999	1212
41	54	0.001006719999	1
41	78	0.001021279997	2
41	106	0.001047199995	3
41	159	0.001060959993	4
41	169	0.001067839992	5
41	193	0.001078559991	6
41	242	0.001102399988	7
41	464	2.000012319999	8
41	592	4.000012319999	9
41	769	4.200015999998	10
41	852	6.000028159998	11
41	902	6.200024959998	12
41	936	8.000011359999	13
46	358	1.000060799993	1
46	361	1.000060799993	2
46	362	1.000060959993	1
46	372	1.000067839992	0
48	257	1.000006719999	1
48	281	1.000021279997	2
48	309	1.000047199995	3
48	362	1.000060959993	4
48	372	1.000067839992	5
48	396	1.000087519991	6
48	445	1.000121919988	7
48	482	2.000036479998	8
48	549	2.200059519996	9
48	610	4.000036479998	10
48	804	4.200076799996	11
48	1162	13.65872904447	12
48	1213	13.858748244468	13
48	1398	23.096784332706	14
48	1416	23.296778892706	15
49	270	1.000013439998	1
49	296	1.000035199996	2
49	329	1.000054079994	3
49	347	1.000060799993	4
49	391	1.000074719991	5
49	419	1.00009439999	6
49	429	1.000115039989	7
49	501	2.000052639997	8
49	535	2.200043359997	9
49	629	4.000069919997	10
49	790	4.200043359997	11
49	1181	13.658741364469	12
49	1199	13.858735924469	13
49	1381	23.096772012707	14
49	1432	23.296791212705	15
50	257	1.000006719999	64
50	281	1.000021279997	142
50	309	1.000047199995	272
50	362	1.000060959993	338
50	372	1.000067839992	404
50	396	1.000087519991	630
50	445	1.000121919988	696
50	482	2.000036479998	978
50	549	2.200059519996	1044
50	610	4.000036479998	1326
50	804	4.200076799996	1392
50	1162	13.65872904447	1514
50	1213	13.858748244468	1580
50	1398	23.096784332706	1714
50	1416	23.296778892706	1780
51	270	1.000013439998	64
51	296	1.000035199996	218
51	329	1.000054079994	284
51	347	1.000060799993	348
51	391	1.000074719991	414
51	419	1.00009439999	480
51	429	1.000115039989	718
51	501	2.000052639997	900
51	535	2.200043359997	966
51	629	4.000069919997	1364
51	790	4.200043359997	1430
51	1181	13.658741364469	1564
51	1199	13.858735924469	1630
51	1381	23.096772012707	1752
51	1432	23.296791212705	1818
55	270	1.000013439998	1
55	296	1.000035199996	2
55	329	1.000054079994	3
55	347	1.000060799993	4
55	391	1.000074719991	5
55	419	1.00009439999	6
55	429	1.000115039989	7
55	501	2.000052639997	8
55	535	2.200043359997	9
55	629	4.000069919997	10
55	790	4.200043359997	11
55	1181	13.658741364469	12
55	1199	13.858735924469	13
55	1381	23.096772012707	14
55	1432	23.296791212705	15
62	646	4.000076639996	1
62	670	4.000090079994	2
62	869	6.000034879997	3
62	1044	9.571152612649	4
62	1319	18.867716629141	5
62	1570	29.480276757934	6
63	659	4.000083359995	1
63	743	4.000123679989	2
63	886	6.000041599996	3
63	1029	9.57114589265	4
63	1304	18.867709909142	5
63	1555	29.480270037935	6
64	646	4.000076639996	64
64	670	4.000090079994	128
64	869	6.000034879997	192
64	1044	9.571152612649	256
64	1319	18.867716629141	320
64	1570	29.480276757934	384
65	659	4.000083359995	64
65	743	4.000123679989	128
65	886	6.000041599996	192
65	1029	9.57114589265	256
65	1304	18.867709909142	320
65	1555	29.480270037935	384
69	659	4.000083359995	1
69	743	4.000123679989	2
69	886	6.000041599996	3
69	1029	9.57114589265	4
69	1304	18.867709909142	5
69	1555	29.480270037935	6
78	323	1.000047199995	1
78	328	1.000054079994	0
78	415	1.000087519991	1
78	418	1.00009439999	0
80	269	1.000013439998	1
80	295	1.000035199996	2
80	328	1.000054079994	3
80	346	1.000060799993	4
80	390	1.000074719991	5
80	418	1.00009439999	6
80	428	1.000115039989	7
80	500	2.000052639997	8
80	534	2.200043359997	9
80	628	4.000069919997	10
80	789	4.200043359997	11
80	1180	13.658741364469	12
80	1198	13.858735924469	13
80	1380	23.096772012707	14
80	1431	23.296791212705	15
81	258	1.000006719999	1
81	282	1.000021279997	2
81	310	1.000047199995	3
81	363	1.000060959993	4
81	373	1.000067839992	5
81	397	1.000087519991	6
81	446	1.000121919988	7
81	483	2.000036479998	8
81	550	2.200059519996	9
81	611	4.000036479998	10
81	805	4.200076799996	11
81	1163	13.65872904447	12
81	1214	13.858748244468	13
81	1399	23.096784332706	14
81	1417	23.296778892706	15
82	269	1.000013439998	64
82	295	1.000035199996	218
82	328	1.000054079994	284
82	346	1.000060799993	348
82	390	1.000074719991	414
82	418	1.00009439999	480
82	428	1.000115039989	718
82	500	2.000052639997	900
82	534	2.200043359997	966
82	628	4.000069919997	1364
82	789	4.200043359997	1430
82	1180	13.658741364469	1564
82	1198	13.858735924469	1630
82	1380	23.096772012707	1752
82	1431	23.296791212705	1818
83	258	1.000006719999	64
83	282	1.000021279997	142
83	310	1.000047199995	272
83	363	1.000060959993	338
83	373	1.000067839992	404
83	397	1.000087519991	630
83	446	1.000121919988	696
83	483	2.000036479998	978
83	550	2.200059519996	1044
83	611	4.000036479998	1326
83	805	4.200076799996	1392
83	1163	13.65872904447	1514
83	1214	13.858748244468	1580
83	1399	23.096784332706	1714
83	1417	23.296778892706	1780
87	258	1.000006719999	1
87	282	1.000021279997	2
87	310	1.000047199995	3
87	363	1.000060959993	4
87	373	1.000067839992	5
87	397	1.000087519991	6
87	446	1.000121919988	7
87	483	2.000036479998	8
87	550	2.200059519996	9
87	611	4.000036479998	10
87	805	4.200076799996	11
87	1163	13.65872904447	12
87	1214	13.858748244468	13
87	1399	23.096784332706	14
87	1417	23.296778892706	15
98	698	4.000103519992	1
98	726	4.00011695999	2
98	1127	10.115586406126	3
98	1336	19.661542318337	4
98	1521	28.503072564998	5
99	687	4.000096799993	1
99	711	4.000110239991	2
99	1144	10.115593126125	3
99	1353	19.661549038336	4
99	1538	28.503079284997	5
100	698	4.000103519992	64
100	726	4.00011695999	128
100	1127	10.115586406126	192
100	1336	19.661542318337	256
100	1521	28.503072564998	320
101	687	4.000096799993	64
101	711	4.000110239991	128
101	1144	10.115593126125	192
101	1353	19.661549038336	256
101	1538	28.503079284997	320
105	687	4.000096799993	1
105	711	4.000110239991	2
105	1144	10.115593126125	3
105	1353	19.661549038336	4
105	1538	28.503079284997	5
112	1061	9.919915405609	1
112	1085	9.919928845607	2
112	1286	18.809227827676	3
112	1469	27.050129693673	4
113	1074	9.919922125608	1
113	1102	9.919935565606	2
113	1271	18.809221107677	3
113	1454	27.050122973674	4
114	1061	9.919915405609	64
114	1085	9.919928845607	128
114	1286	18.809227827676	192
114	1469	27.050129693673	256
115	1074	9.919922125608	64
115	1102	9.919935565606	128
115	1271	18.809221107677	192
115	1454	27.050122973674	256
119	1074	9.919922125608	1
119	1102	9.919935565606	2
119	1271	18.809221107677	3
119	1454	27.050122973674	4
128	686	4.000096799993	1
128	710	4.000110239991	2
128	1143	10.115593126125	3
128	1352	19.661549038336	4
128	1537	28.503079284997	5
129	699	4.000103519992	1
129	727	4.00011695999	2
129	1128	10.115586406126	3
129	1337	19.661542318337	4
129	1522	28.503072564998	5
130	686	4.000096799993	64
130	710	4.000110239991	128
130	1143	10.115593126125	192
130	1352	19.661549038336	256
130	1537	28.503079284997	320
131	699	4.000103519992	64
131	727	4.00011695999	128
131	1128	10.115586406126	192
131	1337	19.661542318337	256
131	1522	28.503072564998	320
135	699	4.000103519992	1
135	727	4.00011695999	2
135	1128	10.115586406126	3
135	1337	19.661542318337	4
135	1522	28.503072564998	5
142	658	4.000083359995	1
142	742	4.000123679989	2
142	885	6.000041599996	3
142	1028	9.57114589265	4
142	1303	18.867709909142	5
142	1554	29.480270037935	6
143	647	4.000076639996	1
143	671	4.000090079994	2
143	870	6.000034879997	3
143	1045	9.571152612649	4
143	1320	18.867716629141	5
143	1571	29.480276757934	6
144	658	4.000083359995	64
144	742	4.000123679989	128
144	885	6.000041599996	192
144	1028	9.57114589265	256
144	1303	18.867709909142	320
144	1554	29.480270037935	384
145	647	4.000076639996	64
145	671	4.000090079994	128
145	870	6.000034879997	192
145	1045	9.571152612649	256
145	1320	18.867716629141	320
145	1571	29.480276757934	384
149	647	4.000076639996	1
149	671	4.000090079994	2
149	870	6.000034879997	3
149	1045	9.571152612649	4
149	1320	18.867716629141	5
149	1571	29.480276757934	6
156	1073	9.919922125608	1
156	1101	9.919935565606	2
156	1270	18.809221107677	3
156	1453	27.050122973674	4
157	1062	9.919915405609	1
157	1086	9.919928845607	2
157	1287	18.809227827676	3
157	1470	27.050129693673	4
158	1073	9.919922125608	64
158	1101	9.919935565606	128
158	1270	18.809221107677	192
158	1453	27.050122973674	256
159	1062	9.919915405609	64
159	1086	9.919928845607	128
159	1287	18.809227827676	192
159	1470	27.050129693673	256
163	1062	9.919915405609	1
163	1086	9.919928845607	2
163	1287	18.809227827676	3
163	1470	27.050129693673	4
170	983	9.090638618067	1
170	1011	9.090652058065	2
170	1235	17.631524751127	3
170	1504	28.422062972806	4
171	972	9.090631898068	1
171	996	9.090645338066	2
171	1252	17.631531471126	3
171	1489	28.422056252807	4
172	983	9.090638618067	64
172	1011	9.090652058065	128
172	1235	17.631524751127	192
172	1504	28.422062972806	256
173	972	9.090631898068	64
173	996	9.090645338066	128
173	1252	17.631531471126	192
173	1489	28.422056252807	256
177	972	9.090631898068	1
177	996	9.090645338066	2
177	1252	17.631531471126	3
177	1489	28.422056252807	4
