file 24863 1346234371                                           
version 2
run General-0-20120829-11:59:16-1980
attr configname General
attr datetime 20120829-11:59:16
attr experiment General
attr inifile omnetpp.ini
attr iterationvars ""
attr iterationvars2 $repetition=0
attr measurement ""
attr network Test
attr processid 1980
attr repetition 0
attr replication #0
attr resultdir results
attr runnumber 0
attr seedset 0

vector 2  Test.enb.eth[0].mac  framesSent  ETV
vector 4  Test.enb.eth[0].mac  bytesSent  ETV
vector 35  Test.mme.eth[0].mac  framesReceivedOK  ETV
vector 37  Test.mme.eth[0].mac  bytesReceivedOK  ETV
vector 41  Test.mme.eth[0].mac  framesPassedToHL  ETV
vector 34  Test.mme.eth[0].mac  framesSent  ETV
vector 36  Test.mme.eth[0].mac  bytesSent  ETV
vector 3  Test.enb.eth[0].mac  framesReceivedOK  ETV
vector 5  Test.enb.eth[0].mac  bytesReceivedOK  ETV
vector 9  Test.enb.eth[0].mac  framesPassedToHL  ETV
vector 199  Test.mme.sctp  "Slow Start Threshold 13:192.168.2.1"  ETV
vector 200  Test.mme.sctp  "Congestion Window 13:192.168.2.1"  ETV
vector 203  Test.mme.sctp  "HB Sent 13:192.168.2.1"  ETV
vector 197  Test.mme.sctp  "RTO 13:192.168.2.1"  ETV
vector 32  Test.mme.eth[0].queue  "queue length"  ETV
vector 190  Test.enb.sctp  "HB ACK Sent 5:192.168.2.2"  ETV
vector 191  Test.enb.sctp  "HB Received 5:192.168.2.2"  ETV
vector 185  Test.enb.sctp  "Slow Start Threshold 5:192.168.2.2"  ETV
vector 186  Test.enb.sctp  "Congestion Window 5:192.168.2.2"  ETV
vector 189  Test.enb.sctp  "HB Sent 5:192.168.2.2"  ETV
vector 183  Test.enb.sctp  "RTO 5:192.168.2.2"  ETV
vector 212  Test.enb.sctp  "SendQueue of Association 5"  ETV
vector 187  Test.enb.sctp  "TSN Sent 5:192.168.2.2"  ETV
vector 0  Test.enb.eth[0].queue  "queue length"  ETV
vector 206  Test.mme.sctp  "HB ACK Received 13:192.168.2.1"  ETV
vector 198  Test.mme.sctp  "RTT 13:192.168.2.1"  ETV
vector 204  Test.mme.sctp  "HB ACK Sent 13:192.168.2.1"  ETV
vector 205  Test.mme.sctp  "HB Received 13:192.168.2.1"  ETV
vector 192  Test.enb.sctp  "HB ACK Received 5:192.168.2.2"  ETV
vector 184  Test.enb.sctp  "RTT 5:192.168.2.2"  ETV
vector 202  Test.mme.sctp  "TSN Received 13:192.168.2.1"  ETV
vector 194  Test.mme.sctp  "Advertised Receiver Window 10"  ETV
vector 209  Test.mme.sctp  "SendQueue of Association 13"  ETV
vector 201  Test.mme.sctp  "TSN Sent 13:192.168.2.1"  ETV
vector 188  Test.enb.sctp  "TSN Received 5:192.168.2.2"  ETV
vector 182  Test.enb.sctp  "Advertised Receiver Window 5"  ETV
vector 48  Test.mme.eth[1].mac  framesSent  ETV
vector 50  Test.mme.eth[1].mac  bytesSent  ETV
vector 81  Test.hss.eth[0].mac  framesReceivedOK  ETV
vector 83  Test.hss.eth[0].mac  bytesReceivedOK  ETV
vector 87  Test.hss.eth[0].mac  framesPassedToHL  ETV
vector 80  Test.hss.eth[0].mac  framesSent  ETV
vector 82  Test.hss.eth[0].mac  bytesSent  ETV
vector 49  Test.mme.eth[1].mac  framesReceivedOK  ETV
vector 51  Test.mme.eth[1].mac  bytesReceivedOK  ETV
vector 55  Test.mme.eth[1].mac  framesPassedToHL  ETV
vector 227  Test.hss.sctp  "Slow Start Threshold 14:192.168.3.2"  ETV
vector 228  Test.hss.sctp  "Congestion Window 14:192.168.3.2"  ETV
vector 231  Test.hss.sctp  "HB Sent 14:192.168.3.2"  ETV
vector 225  Test.hss.sctp  "RTO 14:192.168.3.2"  ETV
vector 78  Test.hss.eth[0].queue  "queue length"  ETV
vector 221  Test.mme.sctp  "HB ACK Sent 8:192.168.3.1"  ETV
vector 222  Test.mme.sctp  "HB Received 8:192.168.3.1"  ETV
vector 216  Test.mme.sctp  "Slow Start Threshold 8:192.168.3.1"  ETV
vector 217  Test.mme.sctp  "Congestion Window 8:192.168.3.1"  ETV
vector 220  Test.mme.sctp  "HB Sent 8:192.168.3.1"  ETV
vector 214  Test.mme.sctp  "RTO 8:192.168.3.1"  ETV
vector 240  Test.mme.sctp  "SendQueue of Association 8"  ETV
vector 218  Test.mme.sctp  "TSN Sent 8:192.168.3.1"  ETV
vector 46  Test.mme.eth[1].queue  "queue length"  ETV
vector 234  Test.hss.sctp  "HB ACK Received 14:192.168.3.2"  ETV
vector 226  Test.hss.sctp  "RTT 14:192.168.3.2"  ETV
vector 232  Test.hss.sctp  "HB ACK Sent 14:192.168.3.2"  ETV
vector 233  Test.hss.sctp  "HB Received 14:192.168.3.2"  ETV
vector 223  Test.mme.sctp  "HB ACK Received 8:192.168.3.1"  ETV
vector 215  Test.mme.sctp  "RTT 8:192.168.3.1"  ETV
vector 230  Test.hss.sctp  "TSN Received 14:192.168.3.2"  ETV
vector 195  Test.hss.sctp  "Advertised Receiver Window 12"  ETV
vector 237  Test.hss.sctp  "SendQueue of Association 14"  ETV
vector 229  Test.hss.sctp  "TSN Sent 14:192.168.3.2"  ETV
vector 219  Test.mme.sctp  "TSN Received 8:192.168.3.1"  ETV
vector 213  Test.mme.sctp  "Advertised Receiver Window 8"  ETV
vector 62  Test.mme.eth[2].mac  framesSent  ETV
vector 64  Test.mme.eth[2].mac  bytesSent  ETV
vector 143  Test.sgw.eth[1].mac  framesReceivedOK  ETV
vector 145  Test.sgw.eth[1].mac  bytesReceivedOK  ETV
vector 149  Test.sgw.eth[1].mac  framesPassedToHL  ETV
vector 142  Test.sgw.eth[1].mac  framesSent  ETV
vector 144  Test.sgw.eth[1].mac  bytesSent  ETV
vector 63  Test.mme.eth[2].mac  framesReceivedOK  ETV
vector 65  Test.mme.eth[2].mac  bytesReceivedOK  ETV
vector 69  Test.mme.eth[2].mac  framesPassedToHL  ETV
vector 128  Test.sgw.eth[0].mac  framesSent  ETV
vector 130  Test.sgw.eth[0].mac  bytesSent  ETV
vector 99  Test.pgw.eth[0].mac  framesReceivedOK  ETV
vector 101  Test.pgw.eth[0].mac  bytesReceivedOK  ETV
vector 105  Test.pgw.eth[0].mac  framesPassedToHL  ETV
vector 98  Test.pgw.eth[0].mac  framesSent  ETV
vector 100  Test.pgw.eth[0].mac  bytesSent  ETV
vector 129  Test.sgw.eth[0].mac  framesReceivedOK  ETV
vector 131  Test.sgw.eth[0].mac  bytesReceivedOK  ETV
vector 135  Test.sgw.eth[0].mac  framesPassedToHL  ETV
vector 16  Test.enb.eth[1].mac  framesSent  ETV
vector 18  Test.enb.eth[1].mac  bytesSent  ETV
vector 171  Test.sgw.eth[3].mac  framesReceivedOK  ETV
vector 173  Test.sgw.eth[3].mac  bytesReceivedOK  ETV
vector 177  Test.sgw.eth[3].mac  framesPassedToHL  ETV
vector 170  Test.sgw.eth[3].mac  framesSent  ETV
vector 172  Test.sgw.eth[3].mac  bytesSent  ETV
vector 17  Test.enb.eth[1].mac  framesReceivedOK  ETV
vector 19  Test.enb.eth[1].mac  bytesReceivedOK  ETV
vector 23  Test.enb.eth[1].mac  framesPassedToHL  ETV
vector 112  Test.pgw.eth[1].mac  framesSent  ETV
vector 114  Test.pgw.eth[1].mac  bytesSent  ETV
vector 157  Test.sgw.eth[2].mac  framesReceivedOK  ETV
vector 159  Test.sgw.eth[2].mac  bytesReceivedOK  ETV
vector 163  Test.sgw.eth[2].mac  framesPassedToHL  ETV
vector 156  Test.sgw.eth[2].mac  framesSent  ETV
vector 158  Test.sgw.eth[2].mac  bytesSent  ETV
vector 113  Test.pgw.eth[1].mac  framesReceivedOK  ETV
vector 115  Test.pgw.eth[1].mac  bytesReceivedOK  ETV
vector 119  Test.pgw.eth[1].mac  framesPassedToHL  ETV
185	6707 126 147 1578 0.001060799993 30 6 0 65535 327675 21474181125
186	6833 121 147 1578 0.001060799993 30 6 0 4380 21900 95922000
183	6954 171 147 1578 0.001060799993 30 7 0 3 8 14
184	7125 210 191 1578 0.001074719991 30 6 0 0.200019199998 0.80008751999 0.16002944154819
187	7335 106 151 926 0.001060799993 8 5 1000 1004 5010 5020030
188	7441 87 229 830 0.001095519989 6.000018079999 3 2000 2002 6003 12012005
189	7528 26 147 147 0.001060799993 0.001060799993 1 1 1 1 1
191	7554 26 131 131 0.001054079994 0.001054079994 1 1 1 1 1
190	7580 26 131 131 0.001054079994 0.001054079994 1 1 1 1 1
192	7606 26 191 191 0.001074719991 0.001074719991 1 1 1 1 1
182	7632 120 229 892 0.001095519989 6.200018079999 4 65498 65535 262103 17174496679
212	7752 91 151 926 0.001060799993 8 5 0 0 0 0
199	7843 109 110 1578 0.001047199995 30 5 0 65535 262140 17179344900
200	7952 105 110 1578 0.001047199995 30 5 0 4380 17520 76737600
197	8057 145 110 1578 0.001047199995 30 6 0 3 7 13
198	8202 171 165 1578 0.001060959993 30 5 0 0.200024959998 0.400078559991 0.080016385635084
201	8373 61 204 816 0.001078559991 6 3 2000 2002 6003 12012005
202	8434 145 197 940 0.001078559991 8.000011359999 5 1000 1004 5010 5020030
203	8579 26 110 110 0.001047199995 0.001047199995 1 1 1 1 1
205	8605 26 175 175 0.001067839992 0.001067839992 1 1 1 1 1
204	8631 26 175 175 0.001067839992 0.001067839992 1 1 1 1 1
206	8657 26 165 165 0.001060959993 0.001060959993 1 1 1 1 1
194	8683 150 197 945 0.001078559991 8.200011359999 5 65489 65535 327629 21468154021
209	8833 52 204 816 0.001078559991 6 3 0 0 0 0
216	8885 169 351 1578 1.000060799993 30 6 0 65535 327675 21474181125
217	9054 164 351 1578 1.000060799993 30 6 0 4380 21900 95922000
214	9218 200 351 1578 1.000060799993 30 8 0 3 9 15
215	9418 252 395 1578 1.000074719991 30 7 0 0.200031039998 0.800147039987 0.16003981194783
218	9670 149 355 1389 1.000060799993 23.096772012707 5 1000 1004 5010 5020030
219	9819 149 433 1385 1.000115039989 23.096772012707 5 2000 2004 10010 20040030
220	9968 26 351 351 1.000060799993 1.000060799993 1 1 1 1 1
222	9994 26 335 335 1.000054079994 1.000054079994 1 1 1 1 1
221	10020 26 335 335 1.000054079994 1.000054079994 1 1 1 1 1
223	10046 26 395 395 1.000074719991 1.000074719991 1 1 1 1 1
213	10072 186 433 1407 1.000115039989 23.296772012707 6 65363 65535 393038 25746502894
240	10258 134 355 1389 1.000060799993 23.096772012707 5 0 0 0 0
227	10392 168 314 1578 1.000047199995 30 6 0 65535 327675 21474181125
228	10560 163 314 1578 1.000047199995 30 6 0 4380 21900 95922000
225	10723 201 314 1578 1.000047199995 30 8 0 3 9 15
226	10924 253 369 1578 1.000060959993 30 7 0 0.200040319998 0.800148959987 0.16004032422738
229	11177 148 408 1371 1.000087519991 23.096760652708 5 2000 2004 10010 20040030
230	11325 148 401 1403 1.000087519991 23.096784332706 5 1000 1004 5010 5020030
231	11473 26 314 314 1.000047199995 1.000047199995 1 1 1 1 1
233	11499 26 379 379 1.000067839992 1.000067839992 1 1 1 1 1
232	11525 26 379 379 1.000067839992 1.000067839992 1 1 1 1 1
234	11551 26 369 369 1.000060959993 1.000060959993 1 1 1 1 1
195	11577 244 401 1422 1.000087519991 23.296784332706 8 65375 65535 524120 34337744200
237	11821 133 408 1371 1.000087519991 23.096760652708 5 0 0 0 0
0	11954 96 154 168 0.001060799993 0.001067839992 4 0 2 4 6
2	12050 314 53 935 0.001006719999 8.000011359999 13 1 13 91 819
3	12364 313 66 955 0.001013439998 8.200018239998 13 1 13 91 819
4	12677 338 53 935 0.001006719999 8.000011359999 13 64 1212 8136 6774856
5	13015 337 66 955 0.001013439998 8.200018239998 13 64 1150 7856 6173416
9	13352 313 66 955 0.001013439998 8.200018239998 13 1 13 91 819
16	13665 104 971 1488 9.090631898068 28.422056252807 4 1 4 10 30
17	13769 105 984 1505 9.090638618067 28.422062972806 4 1 4 10 30
18	13874 111 971 1488 9.090631898068 28.422056252807 4 64 256 640 122880
19	13985 112 984 1505 9.090638618067 28.422062972806 4 64 256 640 122880
23	14097 105 984 1505 9.090638618067 28.422062972806 4 1 4 10 30
32	14202 99 119 214 0.001047199995 0.00108543999 4 0 1 2 2
34	14301 326 65 954 0.001013439998 8.200018239998 13 1 13 91 819
35	14627 327 54 936 0.001006719999 8.000011359999 13 1 13 91 819
36	14954 350 65 954 0.001013439998 8.200018239998 13 64 1150 7856 6173416
37	15304 351 54 936 0.001006719999 8.000011359999 13 64 1212 8136 6774856
41	15655 327 54 936 0.001006719999 8.000011359999 13 1 13 91 819
46	15982 100 358 372 1.000060799993 1.000067839992 4 0 2 4 6
48	16082 388 257 1416 1.000006719999 23.296778892706 15 1 15 120 1240
49	16470 388 270 1432 1.000013439998 23.296791212705 15 1 15 120 1240
50	16858 418 257 1416 1.000006719999 23.296778892706 15 64 1780 13874 17894172
51	17276 417 270 1432 1.000013439998 23.296791212705 15 64 1818 13950 18296876
55	17693 388 270 1432 1.000013439998 23.296791212705 15 1 15 120 1240
62	18081 155 646 1570 4.000076639996 29.480276757934 6 1 6 21 91
63	18236 154 659 1555 4.000083359995 29.480270037935 6 1 6 21 91
64	18390 166 646 1570 4.000076639996 29.480276757934 6 64 384 1344 372736
65	18556 165 659 1555 4.000083359995 29.480270037935 6 64 384 1344 372736
69	18721 154 659 1555 4.000083359995 29.480270037935 6 1 6 21 91
78	18875 99 323 418 1.000047199995 1.00009439999 4 0 1 2 2
80	18974 388 269 1431 1.000013439998 23.296791212705 15 1 15 120 1240
81	19362 388 258 1417 1.000006719999 23.296778892706 15 1 15 120 1240
82	19750 417 269 1431 1.000013439998 23.296791212705 15 64 1818 13950 18296876
83	20167 418 258 1417 1.000006719999 23.296778892706 15 64 1780 13874 17894172
87	20585 388 258 1417 1.000006719999 23.296778892706 15 1 15 120 1240
98	20973 130 698 1521 4.000103519992 28.503072564998 5 1 5 15 55
99	21103 131 687 1538 4.000096799993 28.503079284997 5 1 5 15 55
100	21234 144 698 1521 4.000103519992 28.503072564998 5 64 320 960 225280
101	21378 145 687 1538 4.000096799993 28.503079284997 5 64 320 960 225280
105	21523 136 687 1538 4.000096799993 28.503079284997 5 1 5 15 55
112	21659 110 1061 1469 9.919915405609 27.050129693673 4 1 4 10 30
113	21769 110 1074 1454 9.919922125608 27.050122973674 4 1 4 10 30
114	21879 117 1061 1469 9.919915405609 27.050129693673 4 64 256 640 122880
115	21996 117 1074 1454 9.919922125608 27.050122973674 4 64 256 640 122880
119	22113 110 1074 1454 9.919922125608 27.050122973674 4 1 4 10 30
128	22223 136 686 1537 4.000096799993 28.503079284997 5 1 5 15 55
129	22359 135 699 1522 4.000103519992 28.503072564998 5 1 5 15 55
130	22494 145 686 1537 4.000096799993 28.503079284997 5 64 320 960 225280
131	22639 144 699 1522 4.000103519992 28.503072564998 5 64 320 960 225280
135	22783 135 699 1522 4.000103519992 28.503072564998 5 1 5 15 55
142	22918 160 658 1554 4.000083359995 29.480270037935 6 1 6 21 91
143	23078 161 647 1571 4.000076639996 29.480276757934 6 1 6 21 91
144	23239 171 658 1554 4.000083359995 29.480270037935 6 64 384 1344 372736
145	23410 172 647 1571 4.000076639996 29.480276757934 6 64 384 1344 372736
149	23582 161 647 1571 4.000076639996 29.480276757934 6 1 6 21 91
156	23743 110 1073 1453 9.919922125608 27.050122973674 4 1 4 10 30
157	23853 110 1062 1470 9.919915405609 27.050129693673 4 1 4 10 30
158	23963 117 1073 1453 9.919922125608 27.050122973674 4 64 256 640 122880
159	24080 117 1062 1470 9.919915405609 27.050129693673 4 64 256 640 122880
163	24197 110 1062 1470 9.919915405609 27.050129693673 4 1 4 10 30
170	24307 109 983 1504 9.090638618067 28.422062972806 4 1 4 10 30
171	24416 108 972 1489 9.090631898068 28.422056252807 4 1 4 10 30
172	24524 116 983 1504 9.090638618067 28.422062972806 4 64 256 640 122880
173	24640 115 972 1489 9.090631898068 28.422056252807 4 64 256 640 122880
177	24755 108 972 1489 9.090631898068 28.422056252807 4 1 4 10 30
